# vtk DataFile Version 2.0
Generated by NetDEM
ASCII 
DATASET POLYDATA
POINTS 125 double
-0.416509 -0.403196 -0.461704 
-0.403333 -0.203333 -0.450339 
-0.408987 -0.00350857 -0.462898 
-0.40295 0.19705 -0.450392 
-0.402763 0.397237 -0.450539 
-0.219183 -0.426785 -0.445487 
-0.203538 -0.203538 -0.450437 
-0.203218 -0.00321788 -0.450518 
-0.169385 0.20209 -0.461164 
-0.23003 0.384436 -0.45177 
-0.0224372 -0.405842 -0.449425 
-0.00366947 -0.203669 -0.450354 
-0.00360232 -0.00360232 -0.450417 
0.00423611 0.188996 -0.444972 
-0.0169064 0.399823 -0.448715 
0.192275 -0.397566 -0.46307 
0.173511 -0.209733 -0.463334 
0.174821 -0.00713924 -0.460205 
0.18039 0.204914 -0.450111 
0.196913 0.396913 -0.450524 
0.396713 -0.403287 -0.450382 
0.39661 -0.20339 -0.450556 
0.396488 -0.00351175 -0.450458 
0.396508 0.196508 -0.450553 
0.395657 0.394552 -0.442083 
-0.411508 -0.400178 -0.386505 
-0.403333 -0.203333 -0.350782 
-0.41592 -0.0042403 -0.389523 
-0.40295 0.19705 -0.350909 
-0.402763 0.397237 -0.351179 
-0.204128 -0.40228 -0.349969 
-0.203538 -0.203538 -0.350941 
-0.203218 -0.00321788 -0.351128 
-0.2051 0.190546 -0.385956 
-0.195777 0.386366 -0.36076 
-0.00591094 -0.398781 -0.362154 
-0.00366947 -0.203669 -0.350792 
-0.00360232 -0.00360232 -0.35091 
0.000875963 0.193429 -0.342591 
-0.0130238 0.400005 -0.363992 
0.192517 -0.399846 -0.38715 
0.185936 -0.207912 -0.381702 
0.18713 -0.0111705 -0.381268 
0.187027 0.187675 -0.363159 
0.196913 0.396913 -0.351166 
0.396713 -0.403287 -0.350871 
0.39661 -0.20339 -0.351171 
0.396488 -0.00351175 -0.350987 
0.396508 0.196508 -0.351149 
0.397 0.394092 -0.337975 
-0.403633 -0.403633 -0.256976 
-0.403333 -0.203333 -0.251132 
-0.403998 -0.00399844 -0.257341 
-0.40295 0.19705 -0.251326 
-0.402763 0.397237 -0.251699 
-0.202917 -0.403061 -0.228144 
-0.203538 -0.203538 -0.251358 
-0.203218 -0.00321788 -0.251588 
-0.203937 0.196063 -0.25728 
-0.203343 0.396798 -0.249133 
-0.00292062 -0.402921 -0.256263 
-0.00366947 -0.203669 -0.251126 
-0.00360232 -0.00360232 -0.251289 
-0.0027998 0.197253 -0.225624 
-0.00266816 0.397332 -0.256011 
0.197698 -0.402302 -0.255645 
0.196222 -0.203778 -0.257121 
0.197391 -0.00260897 -0.255952 
0.197198 0.197198 -0.256145 
0.196913 0.396913 -0.251678 
0.396713 -0.403287 -0.251267 
0.39661 -0.20339 -0.251648 
0.396488 -0.00351175 -0.251409 
0.396508 0.196508 -0.25159 
0.396463 0.396128 -0.225044 
-0.403633 -0.403633 0.0411488 
-0.403333 -0.203333 0.0414494 
-0.403998 -0.00399844 0.0407835 
-0.40295 0.19705 0.0418315 
-0.402763 0.397237 0.0420187 
-0.203099 -0.403099 0.041683 
-0.203538 -0.203538 0.0412437 
-0.203218 -0.00321788 0.0415641 
-0.203937 0.196063 0.0408446 
-0.203347 0.396653 0.041435 
-0.00292062 -0.402921 0.0418613 
-0.00366947 -0.203669 0.0411125 
-0.00360232 -0.00360232 0.0411796 
-0.00217008 0.19783 0.0426119 
-0.00266816 0.397332 0.0421138 
0.197698 -0.402302 0.0424798 
0.196222 -0.203778 0.0410037 
0.197391 -0.00260897 0.042173 
0.197198 0.197198 0.0419797 
0.196913 0.396913 0.041695 
0.396713 -0.403287 0.0414946 
0.39661 -0.20339 0.0413915 
0.396488 -0.00351175 0.0412702 
0.396508 0.196508 0.0412898 
0.396534 0.396534 0.0413155 
-0.403633 -0.403633 0.290223 
-0.403333 -0.203333 0.290524 
-0.403998 -0.00399844 0.289858 
-0.40295 0.19705 0.290906 
-0.402763 0.397237 0.291093 
-0.203099 -0.403099 0.290757 
-0.203538 -0.203538 0.290318 
-0.203218 -0.00321788 0.290639 
-0.203937 0.196063 0.289919 
-0.203347 0.396653 0.29051 
-0.00292062 -0.402921 0.290936 
-0.00366947 -0.203669 0.290187 
-0.00360232 -0.00360232 0.290254 
-0.00217008 0.19783 0.291686 
-0.00266816 0.397332 0.291188 
0.197698 -0.402302 0.291554 
0.196222 -0.203778 0.290078 
0.197391 -0.00260897 0.291248 
0.197198 0.197198 0.291054 
0.196913 0.396913 0.29077 
0.396713 -0.403287 0.290569 
0.39661 -0.20339 0.290466 
0.396488 -0.00351175 0.290345 
0.396508 0.196508 0.290364 
0.396534 0.396534 0.29039 
VERTICES 125 250
1 0
1 1
1 2
1 3
1 4
1 5
1 6
1 7
1 8
1 9
1 10
1 11
1 12
1 13
1 14
1 15
1 16
1 17
1 18
1 19
1 20
1 21
1 22
1 23
1 24
1 25
1 26
1 27
1 28
1 29
1 30
1 31
1 32
1 33
1 34
1 35
1 36
1 37
1 38
1 39
1 40
1 41
1 42
1 43
1 44
1 45
1 46
1 47
1 48
1 49
1 50
1 51
1 52
1 53
1 54
1 55
1 56
1 57
1 58
1 59
1 60
1 61
1 62
1 63
1 64
1 65
1 66
1 67
1 68
1 69
1 70
1 71
1 72
1 73
1 74
1 75
1 76
1 77
1 78
1 79
1 80
1 81
1 82
1 83
1 84
1 85
1 86
1 87
1 88
1 89
1 90
1 91
1 92
1 93
1 94
1 95
1 96
1 97
1 98
1 99
1 100
1 101
1 102
1 103
1 104
1 105
1 106
1 107
1 108
1 109
1 110
1 111
1 112
1 113
1 114
1 115
1 116
1 117
1 118
1 119
1 120
1 121
1 122
1 123
1 124
POINT_DATA 125
SCALARS id int 1
LOOKUP_TABLE default
0
1
2
3
4
5
6
7
8
9
10
11
12
13
14
15
16
17
18
19
20
21
22
23
24
25
26
27
28
29
30
31
32
33
34
35
36
37
38
39
40
41
42
43
44
45
46
47
48
49
50
51
52
53
54
55
56
57
58
59
60
61
62
63
64
65
66
67
68
69
70
71
72
73
74
75
76
77
78
79
80
81
82
83
84
85
86
87
88
89
90
91
92
93
94
95
96
97
98
99
100
101
102
103
104
105
106
107
108
109
110
111
112
113
114
115
116
117
118
119
120
121
122
123
124
SCALARS type int 1
LOOKUP_TABLE default
0
0
0
0
0
0
0
0
0
0
0
0
0
0
0
0
0
0
0
0
0
0
0
0
0
0
0
0
0
0
0
0
0
0
0
0
0
0
0
0
0
0
0
0
0
0
0
0
0
0
0
0
0
0
0
0
0
0
0
0
0
0
0
0
0
0
0
0
0
0
0
0
0
0
0
0
0
0
0
0
0
0
0
0
0
0
0
0
0
0
0
0
0
0
0
0
0
0
0
0
0
0
0
0
0
0
0
0
0
0
0
0
0
0
0
0
0
0
0
0
0
0
0
0
0
SCALARS damp_viscous double 1
LOOKUP_TABLE default
0
0
0
0
0
0
0
0
0
0
0
0
0
0
0
0
0
0
0
0
0
0
0
0
0
0
0
0
0
0
0
0
0
0
0
0
0
0
0
0
0
0
0
0
0
0
0
0
0
0
0
0
0
0
0
0
0
0
0
0
0
0
0
0
0
0
0
0
0
0
0
0
0
0
0
0
0
0
0
0
0
0
0
0
0
0
0
0
0
0
0
0
0
0
0
0
0
0
0
0
0
0
0
0
0
0
0
0
0
0
0
0
0
0
0
0
0
0
0
0
0
0
0
0
0
SCALARS damp_numerical double 1
LOOKUP_TABLE default
0.5
0.5
0.5
0.5
0.5
0.5
0.5
0.5
0.5
0.5
0.5
0.5
0.5
0.5
0.5
0.5
0.5
0.5
0.5
0.5
0.5
0.5
0.5
0.5
0.5
0.5
0.5
0.5
0.5
0.5
0.5
0.5
0.5
0.5
0.5
0.5
0.5
0.5
0.5
0.5
0.5
0.5
0.5
0.5
0.5
0.5
0.5
0.5
0.5
0.5
0.5
0.5
0.5
0.5
0.5
0.5
0.5
0.5
0.5
0.5
0.5
0.5
0.5
0.5
0.5
0.5
0.5
0.5
0.5
0.5
0.5
0.5
0.5
0.5
0.5
0.5
0.5
0.5
0.5
0.5
0.5
0.5
0.5
0.5
0.5
0.5
0.5
0.5
0.5
0.5
0.5
0.5
0.5
0.5
0.5
0.5
0.5
0.5
0.5
0.5
0.5
0.5
0.5
0.5
0.5
0.5
0.5
0.5
0.5
0.5
0.5
0.5
0.5
0.5
0.5
0.5
0.5
0.5
0.5
0.5
0.5
0.5
0.5
0.5
0.5
SCALARS quat double 4
LOOKUP_TABLE default
0.985234 0.0686737 -0.00824468 0.156623 
0.422936 0.19358 0.881935 0.076436 
0.998837 0.00916003 -0.0470698 -0.00507603 
0.933896 0.135683 0.0158348 0.330419 
0.218235 0.323535 0.831742 0.394847 
0.850116 0.0960694 0.2999 0.422059 
0.259029 0.245797 0.696789 0.622072 
0.947128 0.0660144 0.273627 0.154011 
0.0179359 0.915815 0.40116 0.00559703 
0.23217 0.209845 0.268499 0.911027 
0.902378 0.0882932 0.206524 0.367786 
0.895604 0.01201 0.325206 0.3033 
0.115508 0.577388 0.641376 0.491851 
0.767396 0.53619 0.325755 0.132243 
0.785405 0.212327 0.176342 0.55404 
0.99776 0.0263756 -0.0397428 0.0469119 
0.663851 0.0958449 0.026299 0.741231 
0.972931 0.0452444 0.0151235 0.226117 
0.954495 0.19747 0.152477 0.163386 
0.872998 0.106465 0.203002 0.430499 
1 0.000646178 0.000193913 0.000461524 
0.464545 0.197074 0.639242 0.580284 
0.80546 0.16019 0.208233 0.531236 
0.973067 0.0554567 0.156413 0.16 
0.847421 0.483253 0.211336 0.0606737 
0.956135 0.147249 -0.22038 0.124724 
0.422936 0.19358 0.881935 0.076436 
0.959901 0.0704707 -0.270899 0.0154354 
0.933896 0.135683 0.0158348 0.330419 
0.218235 0.323535 0.831742 0.394847 
0.769954 -0.0220055 0.591384 0.238644 
0.259029 0.245797 0.696789 0.622072 
0.947128 0.0660144 0.273627 0.154011 
0.00264818 0.777499 0.298032 0.553773 
-0.0801571 0.709359 0.390254 0.581452 
0.856581 0.331353 0.257057 0.30066 
0.895604 0.01201 0.325206 0.3033 
0.115508 0.577388 0.641376 0.491851 
0.801571 0.396316 0.445449 -0.044638 
0.688535 0.514322 -0.0645666 0.507172 
0.950028 0.190602 -0.237802 0.0675922 
0.615103 0.509794 -0.000864691 0.601463 
0.965455 0.129012 -0.0028258 0.226374 
0.909577 0.212176 0.295962 0.200143 
0.872998 0.106465 0.203002 0.430499 
1 0.000646178 0.000193913 0.000461524 
0.464545 0.197074 0.639242 0.580284 
0.80546 0.16019 0.208233 0.531236 
0.973067 0.0554567 0.156413 0.16 
0.80792 0.453309 0.371107 -0.0636839 
0.987695 0.113077 0.0865597 0.064658 
0.422936 0.19358 0.881935 0.076436 
0.999938 0.00834925 0.00519597 0.00514693 
0.933896 0.135683 0.0158348 0.330419 
0.218235 0.323535 0.831742 0.394847 
0.799003 0.0158831 0.529627 0.284319 
0.259029 0.245797 0.696789 0.622072 
0.947128 0.0660144 0.273627 0.154011 
0.114949 0.809678 0.432343 0.379853 
0.239777 0.446478 0.397634 0.764886 
0.907485 0.19221 0.316201 0.198854 
0.895604 0.01201 0.325206 0.3033 
0.115508 0.577388 0.641376 0.491851 
0.822243 0.474085 0.3141 0.0223902 
0.824488 0.388943 0.180706 0.369174 
0.997984 0.0571643 0.0186911 0.0202818 
0.733928 0.293165 0.134605 0.597734 
0.94956 0.0531351 0.230499 0.205872 
0.894099 0.242412 0.307197 0.217838 
0.872998 0.106465 0.203002 0.430499 
1 0.000646178 0.000193913 0.000461524 
0.464545 0.197074 0.639242 0.580284 
0.80546 0.16019 0.208233 0.531236 
0.973067 0.0554567 0.156413 0.16 
0.852103 0.470413 0.229406 0.00238935 
0.987695 0.113077 0.0865597 0.064658 
0.422936 0.19358 0.881935 0.076436 
0.999938 0.00834925 0.00519597 0.00514693 
0.933896 0.135683 0.0158348 0.330419 
0.218235 0.323535 0.831742 0.394847 
0.822268 0.00687642 0.488428 0.292003 
0.259029 0.245797 0.696789 0.622072 
0.947128 0.0660144 0.273627 0.154011 
0.114949 0.809678 0.432343 0.379853 
0.241786 0.448885 0.409847 0.756351 
0.907485 0.19221 0.316201 0.198854 
0.895604 0.01201 0.325206 0.3033 
0.115508 0.577388 0.641376 0.491851 
0.835101 0.483927 0.255872 0.054317 
0.824488 0.388943 0.180706 0.369174 
0.997984 0.0571643 0.0186911 0.0202818 
0.733928 0.293165 0.134605 0.597734 
0.94956 0.0531351 0.230499 0.205872 
0.894099 0.242412 0.307197 0.217838 
0.872998 0.106465 0.203002 0.430499 
1 0.000646178 0.000193913 0.000461524 
0.464545 0.197074 0.639242 0.580284 
0.80546 0.16019 0.208233 0.531236 
0.973067 0.0554567 0.156413 0.16 
0.85666 0.475253 0.200024 0.0160836 
0.987695 0.113077 0.0865597 0.064658 
0.422936 0.19358 0.881935 0.076436 
0.999938 0.00834925 0.00519597 0.00514693 
0.933896 0.135683 0.0158348 0.330419 
0.218235 0.323535 0.831742 0.394847 
0.822268 0.00687642 0.488428 0.292003 
0.259029 0.245797 0.696789 0.622072 
0.947128 0.0660144 0.273627 0.154011 
0.114949 0.809678 0.432343 0.379853 
0.241786 0.448885 0.409847 0.756351 
0.907485 0.19221 0.316201 0.198854 
0.895604 0.01201 0.325206 0.3033 
0.115508 0.577388 0.641376 0.491851 
0.835101 0.483927 0.255872 0.054317 
0.824488 0.388943 0.180706 0.369174 
0.997984 0.0571643 0.0186911 0.0202818 
0.733928 0.293165 0.134605 0.597734 
0.94956 0.0531351 0.230499 0.205872 
0.894099 0.242412 0.307197 0.217838 
0.872998 0.106465 0.203002 0.430499 
1 0.000646178 0.000193913 0.000461524 
0.464545 0.197074 0.639242 0.580284 
0.80546 0.16019 0.208233 0.531236 
0.973067 0.0554567 0.156413 0.16 
0.85666 0.475253 0.200024 0.0160836 
VECTORS vel double
-0.0425459 -0.0486167 -0.0463528 
0 0 -0.167192 
-0.0907134 0.0362855 -0.0172621 
0 0 -0.190759 
0 0 -0.194955 
-0.0718814 -0.108665 -0.0403864 
0 0 -0.113127 
0 0 -0.144295 
-0.000863441 -0.0674081 -0.0573702 
-0.171672 -0.157815 -0.222765 
0.0105456 -0.0385379 -0.0103605 
0 0 -0.137787 
0 0 -0.128286 
0.306304 0.0729664 -0.0428473 
-0.0944034 0.046121 -0.046317 
-0.0584544 0.0287267 -0.024635 
-0.0132162 0.0186372 0.0144892 
-0.0390016 -0.0299924 -0.0364265 
-0.0725503 0.0303114 -0.0433467 
0 0 -0.179916 
0 0 -0.168278 
0 0 -0.131191 
0 0 -0.124285 
0 0 -0.104052 
0.169723 0.086783 -0.0106479 
-0.180535 -0.00396521 -0.010744 
0 0 -0.110345 
-0.222749 -0.0107431 -0.0159382 
0 0 -0.122011 
0 0 -0.134856 
-0.175354 -0.0706523 0.0263493 
0 0 -0.0331689 
0 0 -0.0416321 
-0.0447102 -0.117895 -0.0603 
0.027994 0.0352896 -0.34925 
-0.0599657 0.0154341 -0.0124601 
0 0 -0.0716571 
0 0 -0.0474211 
0.0144884 -0.0155266 0.0274403 
-0.146287 -0.00055744 -0.00237475 
-0.140381 0.0236061 -0.0126122 
-0.157594 -0.112864 0.00208021 
-0.164922 -0.136473 -0.238499 
-0.149869 -0.0967711 -0.0529284 
0 0 -0.0881939 
0 0 -0.101266 
0 0 -0.0482475 
0 0 -0.039863 
0 0 -0.0195282 
-0.0384023 0.00277857 0.143179 
0 0 -3.2265 
0 0 0.054378 
0 0 -3.2265 
0 0 0.0762629 
0 0 0.0834149 
0.115523 0.0532217 0.0113225 
0 0 0.153291 
0 0 0.12538 
0 0 -3.2265 
0.0230392 0.0110635 -0.605658 
0 0 -3.2265 
0 0 0.0742223 
0 0 0.112007 
-0.0659331 -0.0604902 -0.251462 
0 0 -3.2265 
0 0 -3.2265 
0 0 -3.2265 
0 0 -3.2265 
0 0 -3.2265 
0 0 0.11048 
0 0 0.0883783 
0 0 0.128092 
0 0 0.140042 
0 0 0.10952 
-0.0126018 -0.0493539 0.145011 
0 0 -2.736 
0 0 -2.736 
0 0 -2.736 
0 0 -2.736 
0 0 -2.736 
0 0 -2.736 
0 0 -2.736 
0 0 -2.736 
0 0 -2.736 
0 0 -2.736 
0 0 -2.736 
0 0 -2.736 
0 0 -2.736 
0 0 -2.736 
0 0 -2.736 
0 0 -2.736 
0 0 -2.736 
0 0 -2.736 
0 0 -2.736 
0 0 -2.736 
0 0 -2.736 
0 0 -2.736 
0 0 -2.736 
0 0 -2.736 
0 0 -2.736 
0 0 -2.2455 
0 0 -2.2455 
0 0 -2.2455 
0 0 -2.2455 
0 0 -2.2455 
0 0 -2.2455 
0 0 -2.2455 
0 0 -2.2455 
0 0 -2.2455 
0 0 -2.2455 
0 0 -2.2455 
0 0 -2.2455 
0 0 -2.2455 
0 0 -2.2455 
0 0 -2.2455 
0 0 -2.2455 
0 0 -2.2455 
0 0 -2.2455 
0 0 -2.2455 
0 0 -2.2455 
0 0 -2.2455 
0 0 -2.2455 
0 0 -2.2455 
0 0 -2.2455 
0 0 -2.2455 
VECTORS spin double
0.417084 -1.42943 1.10017 
0 0 0 
-1.00314 -2.42444 0.0157247 
0 0 0 
0 0 0 
2.22928 -1.74651 0.422463 
0 0 0 
0 0 0 
1.85155 0.211603 -0.533 
4.58267 -1.8035 -1.79231 
0.227443 -0.351303 1.55743 
0 0 0 
0 0 0 
-2.31522 5.91501 -3.18434 
-3.20337 -2.07327 4.32315 
-0.425678 -1.53835 -0.336928 
-0.332769 -1.74409 3.40619 
0.668016 -1.02513 0.129049 
-0.0182311 -1.91549 -1.29672 
0 0 0 
0 0 0 
0 0 0 
0 0 0 
0 0 0 
-1.50322 2.81439 -0.314883 
-2.14917 -1.87631 -0.330562 
0 0 0 
2.30542 -1.02717 1.28961 
0 0 0 
0 0 0 
-2.26664 -0.631687 -0.671335 
0 0 0 
0 0 0 
0.544742 -0.534969 -1.62531 
-6.06953 4.4041 -0.76909 
-0.593935 -0.876344 1.42358 
0 0 0 
0 0 0 
3.13177 -11.9499 -0.604137 
3.89527 0.383881 2.77672 
0.412111 -0.11136 0.978581 
5.10872 -0.855545 -0.809175 
3.91418 -6.43671 -0.379917 
2.07858 -0.165989 -0.262765 
0 0 0 
0 0 0 
0 0 0 
0 0 0 
0 0 0 
2.35157 -6.70312 -0.403654 
0 0 0 
0 0 0 
0 0 0 
0 0 0 
0 0 0 
0.414056 5.95833 -0.719896 
0 0 0 
0 0 0 
0 0 0 
7.16929 -5.1878 -0.562286 
0 0 0 
0 0 0 
0 0 0 
-2.72522 13.2612 0.916017 
0 0 0 
0 0 0 
0 0 0 
0 0 0 
0 0 0 
0 0 0 
0 0 0 
0 0 0 
0 0 0 
0 0 0 
-1.47987 7.13902 0.790088 
0 0 0 
0 0 0 
0 0 0 
0 0 0 
0 0 0 
0 0 0 
0 0 0 
0 0 0 
0 0 0 
0 0 0 
0 0 0 
0 0 0 
0 0 0 
0 0 0 
0 0 0 
0 0 0 
0 0 0 
0 0 0 
0 0 0 
0 0 0 
0 0 0 
0 0 0 
0 0 0 
0 0 0 
0 0 0 
0 0 0 
0 0 0 
0 0 0 
0 0 0 
0 0 0 
0 0 0 
0 0 0 
0 0 0 
0 0 0 
0 0 0 
0 0 0 
0 0 0 
0 0 0 
0 0 0 
0 0 0 
0 0 0 
0 0 0 
0 0 0 
0 0 0 
0 0 0 
0 0 0 
0 0 0 
0 0 0 
0 0 0 
0 0 0 
VECTORS force double
-2.23162 -0.344146 -6.34576 
0 0 256.83 
-7.01113 -2.75929 0.738635 
0 0 286.21 
0 0 332.729 
-92.6632 -95.4695 61.9562 
0 0 256.934 
0 0 324.212 
11.4274 -1.24932 -33.1773 
10.904 -195.317 -217.117 
-0.381056 -4.23234 -1.79188 
0 0 261.924 
0 0 279.437 
0 0 -13.6117 
-5.69696 -1.70362 -1.48693 
-8.06427 -16.058 26.7545 
2.90498 -2.86643 -0.612589 
-3.8343 -2.03091 -3.51258 
-2.76025 4.31164 -3.02483 
0 0 326.675 
0 0 283.53 
0 0 323.454 
0 0 285.593 
0 0 297.269 
0 0 -13.6117 
-0.746495 -0.46976 -12.5687 
0 0 391.625 
-0.222494 -1.5006 -7.12434 
0 0 441.861 
0 0 540.783 
-58.3237 -24.6962 204.735 
0 0 358.005 
0 0 424.113 
-21.0582 -4.48624 20.1703 
70.1956 53.0353 221.17 
-1.37001 -1.0586 -2.96896 
0 0 352.439 
0 0 373.663 
0 0 -13.6117 
-2.56531 -0.121982 -6.50952 
-3.80761 -6.22415 16.2624 
1.16175 -1.89554 -5.49503 
0 0 -13.6117 
-1.40487 0.418075 -6.098 
0 0 455.817 
0 0 403.108 
0 0 454.961 
0 0 383.94 
0 0 404.695 
0 0 -13.6117 
0 0 -13.6117 
0 0 406.353 
0 0 -13.6117 
0 0 489.655 
0 0 658.675 
44.7451 27.694 160.507 
0 0 521.291 
0 0 632.862 
0 0 -13.6117 
43.5822 1.22584 346.801 
0 0 -13.6117 
0 0 411.055 
0 0 480.596 
0 0 -13.6117 
0 0 -13.6117 
0 0 -13.6117 
0 0 -13.6117 
0 0 -13.6117 
0 0 -13.6117 
0 0 686.996 
0 0 465.955 
0 0 648.246 
0 0 538.304 
0 0 654.057 
0 0 -13.6117 
0 0 -13.6117 
0 0 -13.6117 
0 0 -13.6117 
0 0 -13.6117 
0 0 -13.6117 
0 0 -13.6117 
0 0 -13.6117 
0 0 -13.6117 
0 0 -13.6117 
0 0 -13.6117 
0 0 -13.6117 
0 0 -13.6117 
0 0 -13.6117 
0 0 -13.6117 
0 0 -13.6117 
0 0 -13.6117 
0 0 -13.6117 
0 0 -13.6117 
0 0 -13.6117 
0 0 -13.6117 
0 0 -13.6117 
0 0 -13.6117 
0 0 -13.6117 
0 0 -13.6117 
0 0 -13.6117 
0 0 -13.6117 
0 0 -13.6117 
0 0 -13.6117 
0 0 -13.6117 
0 0 -13.6117 
0 0 -13.6117 
0 0 -13.6117 
0 0 -13.6117 
0 0 -13.6117 
0 0 -13.6117 
0 0 -13.6117 
0 0 -13.6117 
0 0 -13.6117 
0 0 -13.6117 
0 0 -13.6117 
0 0 -13.6117 
0 0 -13.6117 
0 0 -13.6117 
0 0 -13.6117 
0 0 -13.6117 
0 0 -13.6117 
0 0 -13.6117 
0 0 -13.6117 
0 0 -13.6117 
0 0 -13.6117 
VECTORS moment double
0.0434595 -0.126759 -0.00463504 
0 0 0 
0.0422552 -0.0642108 -0.0014336 
0 0 0 
0 0 0 
-0.0449636 -0.165066 0.535164 
0 0 0 
0 0 0 
0.0080246 -0.533878 0.0156407 
5.29369 0.0684464 -3.74865 
0.10819 -0.0124694 -0.0355466 
0 0 0 
0 0 0 
0 0 0 
0.0224841 -0.0580743 -0.00329511 
0.274901 0.0550937 0.0165274 
-0.0197966 0.0455043 0.0078258 
0.0600981 -0.113861 -8.00044e-05 
-0.0781834 -0.0321896 0.0241314 
0 0 0 
0 0 0 
0 0 0 
0 0 0 
0 0 0 
0 0 0 
-0.01332 0.0579884 0.0165837 
0 0 0 
-0.107456 0.058076 0.0097482 
0 0 0 
0 0 0 
-2.10808 0.35922 -0.0240756 
0 0 0 
0 0 0 
0.258584 1.16972 0.316529 
-5.93773 0.780514 0.158648 
-0.135333 0.00589396 -0.0168346 
0 0 0 
0 0 0 
0 0 0 
-0.0720366 0.202441 -0.0225425 
-0.675384 -0.0354901 -0.0934752 
-0.0164971 -0.159125 -0.0348002 
0 0 0 
0.158321 0.00660111 0.0292346 
0 0 0 
0 0 0 
0 0 0 
0 0 0 
0 0 0 
0 0 0 
0 0 0 
0 0 0 
0 0 0 
0 0 0 
0 0 0 
0.925652 0.0759392 -0.249953 
0 0 0 
0 0 0 
0 0 0 
4.18354 -3.52611 -0.493893 
0 0 0 
0 0 0 
0 0 0 
0 0 0 
0 0 0 
0 0 0 
0 0 0 
0 0 0 
0 0 0 
0 0 0 
0 0 0 
0 0 0 
0 0 0 
0 0 0 
0 0 0 
0 0 0 
0 0 0 
0 0 0 
0 0 0 
0 0 0 
0 0 0 
0 0 0 
0 0 0 
0 0 0 
0 0 0 
0 0 0 
0 0 0 
0 0 0 
0 0 0 
0 0 0 
0 0 0 
0 0 0 
0 0 0 
0 0 0 
0 0 0 
0 0 0 
0 0 0 
0 0 0 
0 0 0 
0 0 0 
0 0 0 
0 0 0 
0 0 0 
0 0 0 
0 0 0 
0 0 0 
0 0 0 
0 0 0 
0 0 0 
0 0 0 
0 0 0 
0 0 0 
0 0 0 
0 0 0 
0 0 0 
0 0 0 
0 0 0 
0 0 0 
0 0 0 
0 0 0 
0 0 0 
0 0 0 
0 0 0 
0 0 0 
0 0 0 
SCALARS shape_id int 1
LOOKUP_TABLE default
0
1
0
1
1
0
1
1
0
0
0
1
1
0
0
0
0
0
0
1
1
1
1
1
0
0
1
0
1
1
0
1
1
0
0
0
1
1
0
0
0
0
0
0
1
1
1
1
1
0
0
1
0
1
1
0
1
1
0
0
0
1
1
0
0
0
0
0
0
1
1
1
1
1
0
0
1
0
1
1
0
1
1
0
0
0
1
1
0
0
0
0
0
0
1
1
1
1
1
0
0
1
0
1
1
0
1
1
0
0
0
1
1
0
0
0
0
0
0
1
1
1
1
1
0
SCALARS size double 1
LOOKUP_TABLE default
0.1
0.1
0.1
0.1
0.1
0.1
0.1
0.1
0.1
0.1
0.1
0.1
0.1
0.1
0.1
0.1
0.1
0.1
0.1
0.1
0.1
0.1
0.1
0.1
0.1
0.1
0.1
0.1
0.1
0.1
0.1
0.1
0.1
0.1
0.1
0.1
0.1
0.1
0.1
0.1
0.1
0.1
0.1
0.1
0.1
0.1
0.1
0.1
0.1
0.1
0.1
0.1
0.1
0.1
0.1
0.1
0.1
0.1
0.1
0.1
0.1
0.1
0.1
0.1
0.1
0.1
0.1
0.1
0.1
0.1
0.1
0.1
0.1
0.1
0.1
0.1
0.1
0.1
0.1
0.1
0.1
0.1
0.1
0.1
0.1
0.1
0.1
0.1
0.1
0.1
0.1
0.1
0.1
0.1
0.1
0.1
0.1
0.1
0.1
0.1
0.1
0.1
0.1
0.1
0.1
0.1
0.1
0.1
0.1
0.1
0.1
0.1
0.1
0.1
0.1
0.1
0.1
0.1
0.1
0.1
0.1
0.1
0.1
0.1
0.1
SCALARS mass double 1
LOOKUP_TABLE default
1.38754
1.38754
1.38754
1.38754
1.38754
1.38754
1.38754
1.38754
1.38754
1.38754
1.38754
1.38754
1.38754
1.38754
1.38754
1.38754
1.38754
1.38754
1.38754
1.38754
1.38754
1.38754
1.38754
1.38754
1.38754
1.38754
1.38754
1.38754
1.38754
1.38754
1.38754
1.38754
1.38754
1.38754
1.38754
1.38754
1.38754
1.38754
1.38754
1.38754
1.38754
1.38754
1.38754
1.38754
1.38754
1.38754
1.38754
1.38754
1.38754
1.38754
1.38754
1.38754
1.38754
1.38754
1.38754
1.38754
1.38754
1.38754
1.38754
1.38754
1.38754
1.38754
1.38754
1.38754
1.38754
1.38754
1.38754
1.38754
1.38754
1.38754
1.38754
1.38754
1.38754
1.38754
1.38754
1.38754
1.38754
1.38754
1.38754
1.38754
1.38754
1.38754
1.38754
1.38754
1.38754
1.38754
1.38754
1.38754
1.38754
1.38754
1.38754
1.38754
1.38754
1.38754
1.38754
1.38754
1.38754
1.38754
1.38754
1.38754
1.38754
1.38754
1.38754
1.38754
1.38754
1.38754
1.38754
1.38754
1.38754
1.38754
1.38754
1.38754
1.38754
1.38754
1.38754
1.38754
1.38754
1.38754
1.38754
1.38754
1.38754
1.38754
1.38754
1.38754
1.38754
VECTORS moi double
0.00116818 0.00159003 0.00189584 
0.00138754 0.00138754 0.00138754 
0.00116818 0.00159003 0.00189584 
0.00138754 0.00138754 0.00138754 
0.00138754 0.00138754 0.00138754 
0.00116818 0.00159003 0.00189584 
0.00138754 0.00138754 0.00138754 
0.00138754 0.00138754 0.00138754 
0.00116818 0.00159003 0.00189584 
0.00116818 0.00159003 0.00189584 
0.00116818 0.00159003 0.00189584 
0.00138754 0.00138754 0.00138754 
0.00138754 0.00138754 0.00138754 
0.00116818 0.00159003 0.00189584 
0.00116818 0.00159003 0.00189584 
0.00116818 0.00159003 0.00189584 
0.00116818 0.00159003 0.00189584 
0.00116818 0.00159003 0.00189584 
0.00116818 0.00159003 0.00189584 
0.00138754 0.00138754 0.00138754 
0.00138754 0.00138754 0.00138754 
0.00138754 0.00138754 0.00138754 
0.00138754 0.00138754 0.00138754 
0.00138754 0.00138754 0.00138754 
0.00116818 0.00159003 0.00189584 
0.00116818 0.00159003 0.00189584 
0.00138754 0.00138754 0.00138754 
0.00116818 0.00159003 0.00189584 
0.00138754 0.00138754 0.00138754 
0.00138754 0.00138754 0.00138754 
0.00116818 0.00159003 0.00189584 
0.00138754 0.00138754 0.00138754 
0.00138754 0.00138754 0.00138754 
0.00116818 0.00159003 0.00189584 
0.00116818 0.00159003 0.00189584 
0.00116818 0.00159003 0.00189584 
0.00138754 0.00138754 0.00138754 
0.00138754 0.00138754 0.00138754 
0.00116818 0.00159003 0.00189584 
0.00116818 0.00159003 0.00189584 
0.00116818 0.00159003 0.00189584 
0.00116818 0.00159003 0.00189584 
0.00116818 0.00159003 0.00189584 
0.00116818 0.00159003 0.00189584 
0.00138754 0.00138754 0.00138754 
0.00138754 0.00138754 0.00138754 
0.00138754 0.00138754 0.00138754 
0.00138754 0.00138754 0.00138754 
0.00138754 0.00138754 0.00138754 
0.00116818 0.00159003 0.00189584 
0.00116818 0.00159003 0.00189584 
0.00138754 0.00138754 0.00138754 
0.00116818 0.00159003 0.00189584 
0.00138754 0.00138754 0.00138754 
0.00138754 0.00138754 0.00138754 
0.00116818 0.00159003 0.00189584 
0.00138754 0.00138754 0.00138754 
0.00138754 0.00138754 0.00138754 
0.00116818 0.00159003 0.00189584 
0.00116818 0.00159003 0.00189584 
0.00116818 0.00159003 0.00189584 
0.00138754 0.00138754 0.00138754 
0.00138754 0.00138754 0.00138754 
0.00116818 0.00159003 0.00189584 
0.00116818 0.00159003 0.00189584 
0.00116818 0.00159003 0.00189584 
0.00116818 0.00159003 0.00189584 
0.00116818 0.00159003 0.00189584 
0.00116818 0.00159003 0.00189584 
0.00138754 0.00138754 0.00138754 
0.00138754 0.00138754 0.00138754 
0.00138754 0.00138754 0.00138754 
0.00138754 0.00138754 0.00138754 
0.00138754 0.00138754 0.00138754 
0.00116818 0.00159003 0.00189584 
0.00116818 0.00159003 0.00189584 
0.00138754 0.00138754 0.00138754 
0.00116818 0.00159003 0.00189584 
0.00138754 0.00138754 0.00138754 
0.00138754 0.00138754 0.00138754 
0.00116818 0.00159003 0.00189584 
0.00138754 0.00138754 0.00138754 
0.00138754 0.00138754 0.00138754 
0.00116818 0.00159003 0.00189584 
0.00116818 0.00159003 0.00189584 
0.00116818 0.00159003 0.00189584 
0.00138754 0.00138754 0.00138754 
0.00138754 0.00138754 0.00138754 
0.00116818 0.00159003 0.00189584 
0.00116818 0.00159003 0.00189584 
0.00116818 0.00159003 0.00189584 
0.00116818 0.00159003 0.00189584 
0.00116818 0.00159003 0.00189584 
0.00116818 0.00159003 0.00189584 
0.00138754 0.00138754 0.00138754 
0.00138754 0.00138754 0.00138754 
0.00138754 0.00138754 0.00138754 
0.00138754 0.00138754 0.00138754 
0.00138754 0.00138754 0.00138754 
0.00116818 0.00159003 0.00189584 
0.00116818 0.00159003 0.00189584 
0.00138754 0.00138754 0.00138754 
0.00116818 0.00159003 0.00189584 
0.00138754 0.00138754 0.00138754 
0.00138754 0.00138754 0.00138754 
0.00116818 0.00159003 0.00189584 
0.00138754 0.00138754 0.00138754 
0.00138754 0.00138754 0.00138754 
0.00116818 0.00159003 0.00189584 
0.00116818 0.00159003 0.00189584 
0.00116818 0.00159003 0.00189584 
0.00138754 0.00138754 0.00138754 
0.00138754 0.00138754 0.00138754 
0.00116818 0.00159003 0.00189584 
0.00116818 0.00159003 0.00189584 
0.00116818 0.00159003 0.00189584 
0.00116818 0.00159003 0.00189584 
0.00116818 0.00159003 0.00189584 
0.00116818 0.00159003 0.00189584 
0.00138754 0.00138754 0.00138754 
0.00138754 0.00138754 0.00138754 
0.00138754 0.00138754 0.00138754 
0.00138754 0.00138754 0.00138754 
0.00138754 0.00138754 0.00138754 
0.00116818 0.00159003 0.00189584 
SCALARS mask int 1
LOOKUP_TABLE default
0
0
0
0
0
0
0
0
0
0
0
0
0
0
0
0
0
0
0
0
0
0
0
0
0
0
0
0
0
0
0
0
0
0
0
0
0
0
0
0
0
0
0
0
0
0
0
0
0
0
0
0
0
0
0
0
0
0
0
0
0
0
0
0
0
0
0
0
0
0
0
0
0
0
0
0
0
0
0
0
0
0
0
0
0
0
0
0
0
0
0
0
0
0
0
0
0
0
0
0
0
0
0
0
0
0
0
0
0
0
0
0
0
0
0
0
0
0
0
0
0
0
0
0
0
