# vtk DataFile Version 2.0
Generated by NetDEM
ASCII 
DATASET POLYDATA
POINTS 500 double
-0.418833 -0.408218 -0.463969 
-0.449249 -0.19459 -0.450028 
-0.409019 -0.00872382 -0.463426 
-0.450013 0.110146 -0.45002 
-0.438348 0.347847 -0.450052 
-0.270831 -0.429836 -0.459145 
-0.305352 -0.217162 -0.450043 
-0.192854 -0.0101371 -0.450047 
-0.17284 0.173528 -0.463921 
-0.254131 0.365923 -0.463069 
-0.0557763 -0.397361 -0.461036 
-0.144363 -0.134989 -0.450007 
-0.0549642 -0.0900982 -0.450032 
0.0372914 0.179406 -0.452519 
-0.0299794 0.319239 -0.442204 
0.193307 -0.401368 -0.462848 
0.168755 -0.210316 -0.463106 
0.173315 -0.0063164 -0.462343 
0.161161 0.208118 -0.465054 
0.298006 0.402791 -0.418862 
0.450005 -0.408763 -0.450032 
0.431211 -0.302882 -0.450013 
0.3369 -0.0145463 -0.450009 
0.378943 0.0890968 -0.450024 
0.372069 0.439445 -0.465069 
-0.430374 -0.410452 -0.393745 
-0.450002 -0.270426 -0.384865 
-0.408702 -0.0180671 -0.386149 
-0.447466 0.174998 -0.373959 
-0.450022 0.449624 -0.450046 
-0.335697 -0.406895 -0.406678 
-0.236813 -0.152869 -0.415887 
-0.155815 -0.0996299 -0.204275 
-0.304652 0.164377 -0.465044 
-0.149018 0.403278 -0.449612 
-0.0866277 -0.390605 -0.396065 
0.31258 -0.2403 -0.120898 
-0.0356243 -0.01462 -0.305113 
0.0276246 0.25963 -0.450226 
0.120804 0.301554 -0.428255 
0.202831 -0.414356 -0.390467 
0.166254 -0.206468 -0.389721 
0.175209 0.0157796 -0.38563 
0.19725 0.112886 -0.455617 
0.284253 0.37073 -0.32518 
0.386122 -0.45001 -0.385131 
0.436061 -0.356682 -0.365856 
0.27591 -0.209643 -0.450008 
0.450004 0.140199 -0.401688 
0.424809 0.340523 -0.456362 
-0.435366 -0.440953 -0.32603 
-0.320703 -0.207233 -0.351763 
-0.313157 -0.0210581 -0.365128 
-0.290046 0.269197 -0.450011 
-0.450019 0.274591 -0.383052 
-0.180599 -0.374089 -0.4517 
0.184761 -0.33622 -0.297942 
-0.23823 -0.0585038 -0.165301 
-0.17614 0.0788507 -0.450205 
-0.349463 0.331984 -0.335225 
0.0434733 -0.440238 -0.449579 
0.20743 -0.283085 -0.130541 
0.206453 0.0633206 -0.201365 
-0.0388398 0.221743 -0.390305 
0.255594 0.330994 -0.463851 
0.200225 -0.435453 -0.319297 
0.0520753 -0.0956436 -0.450285 
0.161935 0.059912 -0.330628 
0.273443 0.0657434 -0.443391 
0.11308 0.139248 -0.397655 
0.309878 -0.445785 -0.450007 
0.378215 -0.217412 -0.45016 
0.380357 -0.108938 -0.450039 
0.449848 0.23307 -0.364642 
0.437756 0.256174 -0.459872 
-0.433904 -0.452836 -0.243712 
-0.175276 -0.165802 -0.338137 
-0.240107 -0.0043479 -0.352709 
-0.271534 0.0913278 -0.403506 
-0.356602 0.142435 -0.344553 
-0.158972 -0.448235 -0.393311 
-0.127646 -0.0565663 -0.390145 
-0.239317 0.0483784 -0.222726 
-0.0550945 0.127621 -0.443845 
-0.355291 0.379623 -0.407401 
0.0938291 -0.452703 -0.355745 
0.449979 -0.331022 -0.0713555 
-0.186666 -0.235494 -0.450007 
0.0179746 0.0472176 -0.45019 
0.0668904 0.397768 -0.409457 
0.263372 -0.44701 -0.243215 
0.155658 -0.318602 -0.399596 
0.123578 0.0660138 -0.267566 
0.263802 0.175002 -0.442837 
0.144599 0.450009 -0.450018 
0.35042 -0.313677 -0.337363 
0.450005 -0.107671 -0.378319 
0.386596 0.162011 -0.327427 
0.330813 0.308578 -0.412081 
0.434799 0.370831 -0.37671 
-0.388284 -0.439757 -0.16922 
-0.367722 -0.362178 -0.117561 
-0.29412 -0.0402794 -0.272971 
-0.368509 0.0679611 -0.410352 
-0.448806 0.426879 -0.352729 
-0.265509 -0.438499 -0.363322 
-0.064374 -0.15017 -0.370597 
-0.249093 0.0387224 -0.12369 
-0.00764114 -0.0232128 -0.395248 
-0.422434 0.242436 -0.464087 
0.0826673 -0.342387 -0.440718 
0.355509 -0.210814 -0.0355248 
0.0295637 -0.118628 -0.34963 
0.0302775 0.0430318 -0.354782 
-0.00274746 0.436931 -0.464465 
0.30392 -0.387565 -0.21197 
0.260761 -0.312945 -0.426748 
0.0406492 0.0696816 -0.25812 
0.244314 0.23833 -0.379142 
0.349228 0.450013 -0.268397 
0.335005 -0.40855 -0.309841 
0.450115 -0.209767 -0.381182 
0.45 -0.0316046 -0.450007 
0.338005 0.209488 -0.400782 
0.398272 0.452331 -0.373202 
-0.462049 -0.452451 -0.124429 
-0.320396 -0.139411 -0.278297 
-0.451149 -0.031008 -0.317765 
-0.250907 0.188959 -0.391808 
-0.30803 0.447377 -0.35471 
-0.161931 -0.375514 -0.336231 
-0.0844348 -0.220135 -0.450007 
-0.193029 -0.159534 -0.133385 
-0.135106 0.147731 -0.397081 
-0.229167 0.33038 -0.394271 
-0.0919363 -0.311187 -0.451287 
0.290519 -0.319747 -0.0636201 
0.449694 0.0528017 -0.158785 
0.0476189 0.120207 -0.329164 
-0.113571 0.312622 -0.40386 
0.170105 -0.428689 -0.229553 
0.23854 -0.141475 -0.391239 
0.111351 -0.0235892 -0.215589 
0.196246 0.306513 -0.338308 
0.201797 0.384956 -0.396267 
0.450003 -0.441532 -0.308605 
0.334999 -0.176387 -0.369854 
0.249774 -0.0636317 -0.450009 
0.449752 0.0517934 -0.354945 
0.440529 0.404188 -0.297906 
-0.440033 -0.457011 -0.0085244 
-0.228634 -0.170605 -0.253697 
-0.423307 -0.113728 -0.40503 
-0.206884 0.27249 -0.33051 
-0.335722 0.237656 -0.366841 
-0.138098 -0.286827 -0.367368 
0.130218 -0.450007 -0.0898271 
-0.305424 0.361694 -0.166225 
-0.105913 0.275951 -0.324132 
-0.221707 0.451506 -0.420562 
-0.00165588 -0.340111 -0.354445 
0.120016 -0.23658 -0.144534 
-0.167048 -0.0708171 -0.29936 
0.0202975 0.198983 -0.298766 
0.00850719 0.294383 -0.345131 
0.0789549 -0.413843 -0.272727 
0.135849 -0.0964041 -0.397377 
0.257912 -0.118244 -0.261386 
0.230742 0.183528 -0.322554 
0.140567 0.449141 -0.350109 
0.389431 -0.227888 -0.303696 
0.345108 -0.0745612 -0.363016 
0.322832 0.059839 -0.37259 
0.400402 0.301493 -0.310359 
0.445984 0.376854 -0.20946 
-0.32946 -0.442823 -0.0504322 
-0.447801 -0.098463 -0.260131 
-0.355129 0.0113874 -0.237446 
-0.450006 0.0673328 -0.350317 
-0.419357 0.260364 -0.288981 
-0.268423 -0.307669 -0.446826 
-0.178597 -0.276709 -0.234634 
-0.144098 0.397907 -0.0680738 
-0.127105 0.189019 -0.333303 
-0.141113 0.441793 -0.346084 
0.00748532 -0.436093 -0.355732 
0.0151608 -0.0972976 -0.253003 
0.0157995 -0.224206 -0.450007 
-0.0295735 0.270321 -0.243209 
-0.00630992 0.412268 -0.36943 
0.0768628 -0.4262 -0.170524 
0.0957124 -0.041726 -0.329398 
0.291957 -0.160648 -0.182934 
0.204102 0.137503 -0.263403 
0.249437 0.450014 -0.275124 
0.450002 -0.308324 -0.279429 
0.450005 -0.149643 -0.287563 
0.3651 0.0405427 -0.28408 
0.316853 0.24672 -0.305785 
0.38208 0.427363 -0.191943 
-0.241944 -0.44681 -0.123173 
-0.443244 0.229927 -0.196807 
-0.294815 0.193719 -0.180603 
-0.191303 0.0766248 -0.341745 
-0.379349 0.450007 -0.284653 
-0.224581 -0.349598 -0.238486 
-0.043946 -0.262563 -0.30084 
0.0150969 -0.243791 -0.222351 
-0.158395 0.116162 -0.251195 
-0.167442 0.35214 -0.32667 
-0.0435944 -0.387303 -0.2893 
-0.179512 -0.0992825 0.205564 
-0.0275233 0.204592 -0.162839 
-0.0572482 0.119121 -0.302206 
0.106319 0.360689 -0.323272 
0.274464 -0.431905 -0.131291 
0.218281 -0.197633 -0.308948 
0.29433 -0.106144 -0.113005 
0.151279 0.228816 -0.28625 
0.210667 0.343242 -0.246779 
0.41257 -0.380617 -0.221357 
0.446005 -0.227187 -0.221058 
0.437302 -0.0363491 -0.309397 
0.304369 0.11989 -0.287701 
0.406108 0.405572 -0.11878 
-0.248801 -0.332332 -0.146329 
-0.416006 -0.335015 -0.316517 
-0.429076 0.328026 -0.116335 
-0.339684 0.322161 -0.0506904 
-0.448986 0.42858 -0.00158025 
-0.140354 -0.416156 -0.247981 
-0.0539573 0.135511 -0.0576669 
-0.259719 -0.177168 -0.0165053 
-0.18454 0.17646 -0.180283 
-0.159259 0.33728 -0.218353 
-0.0594951 -0.385331 -0.202282 
-0.137511 -0.141582 0.00427771 
-0.113005 -0.0273366 -0.150039 
-0.00155684 0.111258 -0.191206 
0.0248466 0.446264 -0.276208 
0.297603 -0.322331 -0.162712 
0.248357 -0.295844 -0.339928 
0.352985 -0.050711 -0.0637403 
0.155593 0.271251 -0.212464 
0.207771 0.407338 -0.127309 
0.365674 -0.450003 -0.166706 
0.449521 -0.198738 -0.0673975 
0.336073 0.130279 0.00407896 
0.450005 0.152264 -0.169514 
0.426796 0.389324 -0.037357 
-0.298226 -0.318786 -0.347651 
-0.117393 -0.2042 -0.266202 
-0.324527 -0.0224318 -0.140447 
-0.219526 0.208476 -0.254746 
-0.425067 0.444562 -0.195926 
-0.248195 -0.429351 -0.234287 
0.0990581 -0.285096 -0.304815 
-0.309036 0.256986 -0.120052 
-0.248132 0.302503 -0.197888 
-0.150567 0.442261 -0.234434 
0.0176005 -0.381052 -0.157266 
0.45001 -0.388502 0.0104559 
0.0781333 0.437551 -0.180703 
-0.0734924 0.406538 -0.319126 
-0.0367952 0.44775 -0.213715 
0.354347 -0.396688 -0.0789469 
0.373906 -0.0980686 -0.161774 
0.196619 -0.02778 -0.286084 
0.222474 0.198788 -0.19241 
0.0875935 0.238283 -0.366497 
0.354327 -0.295588 -0.23878 
0.355605 -0.149061 -0.252638 
0.450047 0.0838462 -0.253823 
0.448504 0.216851 -0.265991 
0.409158 0.449743 -0.00454423 
-0.336005 -0.39401 0.027281 
-0.138758 -0.345641 -0.123834 
-0.432522 -0.112172 -0.176076 
-0.450008 0.0948855 -0.167099 
-0.347005 0.197116 -0.261395 
-0.144882 -0.442752 -0.155358 
-0.0618855 -0.293257 -0.167209 
-0.230324 0.450003 -0.29183 
-0.282056 0.312658 -0.279032 
-0.205703 0.434736 -0.15028 
0.0406909 -0.406232 -0.0712471 
-0.11537 0.45 0.132367 
0.0300629 0.182912 -0.084008 
-0.0695193 0.30811 -0.186177 
0.00665303 0.369592 -0.172707 
0.268252 -0.425103 -0.0210801 
0.0278528 -0.0897825 0.00280269 
0.146117 -0.0366401 -0.129599 
0.288192 0.174941 -0.13455 
0.0735218 0.250809 -0.144863 
0.407025 -0.282869 -0.147729 
0.450002 -0.151659 -0.155642 
0.333246 -0.0525345 -0.266204 
0.450004 0.275963 -0.185351 
0.302092 0.414215 -0.0717422 
-0.289226 -0.35428 -0.0560663 
-0.415949 0.0013435 -0.176471 
-0.393021 -0.298217 -0.0577242 
-0.430716 0.136874 -0.277348 
-0.450004 0.449982 -0.0992488 
-0.158315 -0.427747 -0.0554141 
-0.140109 -0.321609 -0.026778 
-0.282651 0.0894842 -0.302993 
-0.13402 0.277704 -0.103706 
-0.250131 0.379665 -0.0788062 
-0.0215085 -0.42641 -0.00948017 
-0.407172 -0.173542 -0.31453 
0.012044 -0.00359666 -0.217907 
-0.043392 0.291684 -0.0785104 
-0.00979123 0.44367 -0.122983 
0.154825 -0.391851 -0.00900184 
0.45288 0.00330207 0.0211098 
0.0751921 -0.0286782 -0.0622386 
0.304127 0.336362 -0.196074 
0.281069 0.449922 -0.180312 
0.372832 -0.449991 -0.00592286 
0.440627 -0.0413493 0.101462 
0.246977 -0.0585187 -0.349944 
0.34929 0.252558 -0.183221 
0.439838 0.45291 0.0838624 
-0.339204 -0.20621 0.0492004 
-0.386395 -0.270228 -0.152176 
-0.420354 0.10211 -0.0853619 
-0.388276 0.313426 -0.194568 
-0.450005 0.368979 -0.271201 
-0.172963 -0.433556 0.058888 
-0.0569181 -0.149939 -0.207911 
-0.224285 0.289485 -0.0777768 
-0.101358 0.382018 -0.154462 
-0.0769256 0.43779 -0.0334465 
-0.0911541 -0.445838 0.0370103 
0.0786691 -0.166668 -0.219018 
-0.0670715 0.0659486 -0.128289 
0.031747 0.249434 -0.021568 
0.00744802 0.424242 -0.0475706 
0.135866 -0.334644 -0.0761631 
0.177363 -0.188905 -0.22379 
0.129516 0.151059 -0.171487 
0.312864 0.221307 -0.0496318 
0.172538 0.449998 -0.211222 
0.450002 -0.414562 -0.126323 
0.322751 -0.267751 0.0398706 
0.412994 -0.0226051 -0.213356 
0.370693 0.166161 -0.228801 
0.425534 0.274635 0.202557 
-0.421397 -0.383455 0.0706537 
-0.450003 -0.215407 -0.234457 
-0.36587 0.217675 -0.0682798 
-0.448369 0.0633797 0.00664759 
-0.450013 0.195676 -0.103094 
-0.226931 -0.379406 0.00870778 
-0.277538 -0.114205 -0.0921176 
-0.321669 -0.112981 -0.181839 
-0.189395 0.358358 0.0157753 
-0.130763 0.39919 0.0375006 
0.043302 -0.185466 -0.114601 
-0.150034 -0.247075 -0.111303 
0.219924 0.137097 -0.0616668 
0.104904 0.314849 -0.0190996 
-0.0198309 0.439252 0.0468991 
0.077017 -0.214023 -0.00440401 
0.455419 -0.0755393 -0.0987366 
0.281755 0.0613029 -0.0111222 
0.19201 0.224061 -0.0994315 
0.103875 0.33648 0.0969306 
0.399098 -0.0770046 0.0177792 
0.448346 -0.267211 0.00561656 
0.366625 0.0108461 -0.122217 
0.426821 0.111917 -0.0810112 
0.327908 0.319467 -0.0997042 
-0.427221 -0.177843 -0.122701 
-0.450002 -0.24398 -0.0184388 
-0.394835 -0.0052494 -0.0816438 
-0.449991 0.282963 0.0643066 
-0.350136 0.448481 -0.129807 
-0.238926 -0.305999 0.0727953 
-0.273817 -0.275907 -0.00943714 
-0.326095 0.063317 -0.0365861 
-0.121065 0.218173 -0.0359877 
-0.124834 0.193573 0.0476422 
0.0271255 -0.312811 -0.00186586 
-0.122542 -0.105276 -0.0876966 
0.113718 0.111574 -0.0809061 
-0.156529 0.107136 -0.120023 
0.0416175 0.413504 0.125548 
0.0382525 -0.291306 -0.131493 
0.286867 -0.0733541 0.00258286 
0.269253 0.0231273 -0.0847224 
0.185096 0.280676 -0.0196735 
0.154615 0.323506 -0.139743 
0.327792 -0.338093 0.110766 
0.258543 -0.176266 -0.0573613 
0.41645 0.186526 -0.0152189 
0.41167 0.232976 -0.103623 
0.43549 0.26986 0.0354012 
-0.335037 -0.352016 0.112177 
-0.338788 -0.222803 -0.226236 
-0.44769 -0.059455 -0.0124069 
-0.449988 0.133707 0.0781599 
-0.2792 0.364846 0.0165351 
-0.0602416 -0.181244 -0.120445 
-0.178188 -0.232899 -0.000698509 
-0.231863 0.00556057 -0.0309454 
-0.288345 0.216998 0.00506135 
-0.205334 0.411254 0.107421 
0.211387 -0.0574757 -0.0869091 
0.00259075 -0.0831361 -0.154812 
-0.127936 -0.0344557 0.1489 
-0.0198675 0.241172 0.0607946 
-0.0716166 0.351659 0.0966142 
0.300938 -0.44152 0.0858257 
0.327634 -0.213331 0.125807 
0.179189 0.0403015 -0.116772 
0.263582 0.290145 0.0294294 
0.24093 0.449991 0.00291714 
0.447086 -0.16436 0.0264741 
0.315821 0.362981 0.00989155 
0.449093 0.0883164 0.0135738 
0.430545 0.16092 0.0803995 
0.386069 0.368902 0.0791338 
-0.402139 -0.397214 0.156513 
-0.439736 -0.26455 0.07888 
-0.196697 -0.0740028 -0.0550642 
-0.445044 0.268298 -0.0344886 
-0.389379 0.354667 0.0297798 
-0.210208 -0.393141 0.11144 
-0.246025 -0.00468937 0.138957 
-0.0415292 -0.0103924 -0.0689821 
-0.28603 0.144564 -0.0769055 
-0.284683 0.399934 0.180673 
0.197248 -0.417532 0.0736897 
0.120974 -0.131089 -0.113452 
0.0336368 0.051717 -0.111191 
-0.0883659 0.106369 0.0847485 
-0.041181 0.414067 0.174973 
0.303002 -0.410147 0.181858 
0.20765 -0.11557 0.0105572 
0.0950866 0.193633 0.027786 
0.269647 0.172634 0.174983 
0.157439 0.416976 -0.0414701 
0.410128 -0.449956 0.0868584 
0.333447 -0.163268 0.0496323 
-0.178336 0.109476 0.113556 
0.375926 0.208365 0.149417 
0.31239 0.45342 0.0809701 
-0.440789 -0.450581 0.193218 
-0.323115 0.0519547 0.0749799 
-0.397029 0.00184595 0.0516843 
-0.421672 0.160163 -0.0140244 
-0.450009 0.41694 0.0977436 
-0.297546 -0.45184 0.0907132 
-0.238102 -0.152885 0.0780547 
-0.173726 0.0331755 0.0459236 
-0.36681 0.142014 0.138163 
-0.432084 0.405765 0.215251 
0.237943 -0.26713 0.162296 
-0.0446888 -0.147274 -0.0410594 
-0.0899078 0.0617491 -0.000516265 
0.0227208 0.328323 0.0429039 
0.0114993 0.317214 0.145355 
0.195617 -0.245749 -0.0410437 
0.217046 -0.299911 0.0438184 
0.197234 -0.0134401 -0.00459855 
0.193002 0.17143 0.0269224 
0.0802539 0.425709 0.0214711 
0.415192 -0.370413 0.147237 
0.449905 -0.157707 0.12621 
0.349112 0.00824152 0.0364588 
0.271188 0.16556 0.084359 
0.449148 0.354035 0.147639 
-0.312404 -0.316265 0.180088 
-0.202314 -0.0600487 0.0680795 
-0.439692 -0.00677143 0.158194 
-0.368496 0.223231 0.0648544 
-0.366053 0.445843 0.143729 
-0.182044 -0.244258 0.0996363 
-0.203989 -0.188313 0.167116 
-0.0860065 -0.0189193 0.0592815 
-0.319992 0.317969 0.0948105 
-0.223603 0.231932 0.0825329 
-0.046944 -0.110619 0.060764 
-0.0144106 -0.251826 -0.0583001 
0.0135294 0.00315215 0.0133818 
0.23858 -0.154084 0.0998259 
0.0133247 0.448914 0.235737 
0.21758 -0.392048 0.185322 
0.441717 -0.312201 0.219917 
0.311216 0.0617587 0.118735 
0.176206 0.246278 0.0849027 
0.182176 0.365981 0.0409132 
0.397102 -0.407936 0.238227 
0.448374 -0.200149 0.216742 
0.338274 -0.0764892 0.099126 
0.401056 0.0941864 0.148794 
0.22639 0.422673 0.119259 
VERTICES 500 1000
1 0
1 1
1 2
1 3
1 4
1 5
1 6
1 7
1 8
1 9
1 10
1 11
1 12
1 13
1 14
1 15
1 16
1 17
1 18
1 19
1 20
1 21
1 22
1 23
1 24
1 25
1 26
1 27
1 28
1 29
1 30
1 31
1 32
1 33
1 34
1 35
1 36
1 37
1 38
1 39
1 40
1 41
1 42
1 43
1 44
1 45
1 46
1 47
1 48
1 49
1 50
1 51
1 52
1 53
1 54
1 55
1 56
1 57
1 58
1 59
1 60
1 61
1 62
1 63
1 64
1 65
1 66
1 67
1 68
1 69
1 70
1 71
1 72
1 73
1 74
1 75
1 76
1 77
1 78
1 79
1 80
1 81
1 82
1 83
1 84
1 85
1 86
1 87
1 88
1 89
1 90
1 91
1 92
1 93
1 94
1 95
1 96
1 97
1 98
1 99
1 100
1 101
1 102
1 103
1 104
1 105
1 106
1 107
1 108
1 109
1 110
1 111
1 112
1 113
1 114
1 115
1 116
1 117
1 118
1 119
1 120
1 121
1 122
1 123
1 124
1 125
1 126
1 127
1 128
1 129
1 130
1 131
1 132
1 133
1 134
1 135
1 136
1 137
1 138
1 139
1 140
1 141
1 142
1 143
1 144
1 145
1 146
1 147
1 148
1 149
1 150
1 151
1 152
1 153
1 154
1 155
1 156
1 157
1 158
1 159
1 160
1 161
1 162
1 163
1 164
1 165
1 166
1 167
1 168
1 169
1 170
1 171
1 172
1 173
1 174
1 175
1 176
1 177
1 178
1 179
1 180
1 181
1 182
1 183
1 184
1 185
1 186
1 187
1 188
1 189
1 190
1 191
1 192
1 193
1 194
1 195
1 196
1 197
1 198
1 199
1 200
1 201
1 202
1 203
1 204
1 205
1 206
1 207
1 208
1 209
1 210
1 211
1 212
1 213
1 214
1 215
1 216
1 217
1 218
1 219
1 220
1 221
1 222
1 223
1 224
1 225
1 226
1 227
1 228
1 229
1 230
1 231
1 232
1 233
1 234
1 235
1 236
1 237
1 238
1 239
1 240
1 241
1 242
1 243
1 244
1 245
1 246
1 247
1 248
1 249
1 250
1 251
1 252
1 253
1 254
1 255
1 256
1 257
1 258
1 259
1 260
1 261
1 262
1 263
1 264
1 265
1 266
1 267
1 268
1 269
1 270
1 271
1 272
1 273
1 274
1 275
1 276
1 277
1 278
1 279
1 280
1 281
1 282
1 283
1 284
1 285
1 286
1 287
1 288
1 289
1 290
1 291
1 292
1 293
1 294
1 295
1 296
1 297
1 298
1 299
1 300
1 301
1 302
1 303
1 304
1 305
1 306
1 307
1 308
1 309
1 310
1 311
1 312
1 313
1 314
1 315
1 316
1 317
1 318
1 319
1 320
1 321
1 322
1 323
1 324
1 325
1 326
1 327
1 328
1 329
1 330
1 331
1 332
1 333
1 334
1 335
1 336
1 337
1 338
1 339
1 340
1 341
1 342
1 343
1 344
1 345
1 346
1 347
1 348
1 349
1 350
1 351
1 352
1 353
1 354
1 355
1 356
1 357
1 358
1 359
1 360
1 361
1 362
1 363
1 364
1 365
1 366
1 367
1 368
1 369
1 370
1 371
1 372
1 373
1 374
1 375
1 376
1 377
1 378
1 379
1 380
1 381
1 382
1 383
1 384
1 385
1 386
1 387
1 388
1 389
1 390
1 391
1 392
1 393
1 394
1 395
1 396
1 397
1 398
1 399
1 400
1 401
1 402
1 403
1 404
1 405
1 406
1 407
1 408
1 409
1 410
1 411
1 412
1 413
1 414
1 415
1 416
1 417
1 418
1 419
1 420
1 421
1 422
1 423
1 424
1 425
1 426
1 427
1 428
1 429
1 430
1 431
1 432
1 433
1 434
1 435
1 436
1 437
1 438
1 439
1 440
1 441
1 442
1 443
1 444
1 445
1 446
1 447
1 448
1 449
1 450
1 451
1 452
1 453
1 454
1 455
1 456
1 457
1 458
1 459
1 460
1 461
1 462
1 463
1 464
1 465
1 466
1 467
1 468
1 469
1 470
1 471
1 472
1 473
1 474
1 475
1 476
1 477
1 478
1 479
1 480
1 481
1 482
1 483
1 484
1 485
1 486
1 487
1 488
1 489
1 490
1 491
1 492
1 493
1 494
1 495
1 496
1 497
1 498
1 499
POINT_DATA 500
SCALARS id int 1
LOOKUP_TABLE default
0
1
2
3
4
5
6
7
8
9
10
11
12
13
14
15
16
17
18
19
20
21
22
23
24
25
26
27
28
29
30
31
32
33
34
35
36
37
38
39
40
41
42
43
44
45
46
47
48
49
50
51
52
53
54
55
56
57
58
59
60
61
62
63
64
65
66
67
68
69
70
71
72
73
74
75
76
77
78
79
80
81
82
83
84
85
86
87
88
89
90
91
92
93
94
95
96
97
98
99
100
101
102
103
104
105
106
107
108
109
110
111
112
113
114
115
116
117
118
119
120
121
122
123
124
125
126
127
128
129
130
131
132
133
134
135
136
137
138
139
140
141
142
143
144
145
146
147
148
149
150
151
152
153
154
155
156
157
158
159
160
161
162
163
164
165
166
167
168
169
170
171
172
173
174
175
176
177
178
179
180
181
182
183
184
185
186
187
188
189
190
191
192
193
194
195
196
197
198
199
200
201
202
203
204
205
206
207
208
209
210
211
212
213
214
215
216
217
218
219
220
221
222
223
224
225
226
227
228
229
230
231
232
233
234
235
236
237
238
239
240
241
242
243
244
245
246
247
248
249
250
251
252
253
254
255
256
257
258
259
260
261
262
263
264
265
266
267
268
269
270
271
272
273
274
275
276
277
278
279
280
281
282
283
284
285
286
287
288
289
290
291
292
293
294
295
296
297
298
299
300
301
302
303
304
305
306
307
308
309
310
311
312
313
314
315
316
317
318
319
320
321
322
323
324
325
326
327
328
329
330
331
332
333
334
335
336
337
338
339
340
341
342
343
344
345
346
347
348
349
350
351
352
353
354
355
356
357
358
359
360
361
362
363
364
365
366
367
368
369
370
371
372
373
374
375
376
377
378
379
380
381
382
383
384
385
386
387
388
389
390
391
392
393
394
395
396
397
398
399
400
401
402
403
404
405
406
407
408
409
410
411
412
413
414
415
416
417
418
419
420
421
422
423
424
425
426
427
428
429
430
431
432
433
434
435
436
437
438
439
440
441
442
443
444
445
446
447
448
449
450
451
452
453
454
455
456
457
458
459
460
461
462
463
464
465
466
467
468
469
470
471
472
473
474
475
476
477
478
479
480
481
482
483
484
485
486
487
488
489
490
491
492
493
494
495
496
497
498
499
SCALARS type int 1
LOOKUP_TABLE default
0
0
0
0
0
0
0
0
0
0
0
0
0
0
0
0
0
0
0
0
0
0
0
0
0
0
0
0
0
0
0
0
0
0
0
0
0
0
0
0
0
0
0
0
0
0
0
0
0
0
0
0
0
0
0
0
0
0
0
0
0
0
0
0
0
0
0
0
0
0
0
0
0
0
0
0
0
0
0
0
0
0
0
0
0
0
0
0
0
0
0
0
0
0
0
0
0
0
0
0
0
0
0
0
0
0
0
0
0
0
0
0
0
0
0
0
0
0
0
0
0
0
0
0
0
0
0
0
0
0
0
0
0
0
0
0
0
0
0
0
0
0
0
0
0
0
0
0
0
0
0
0
0
0
0
0
0
0
0
0
0
0
0
0
0
0
0
0
0
0
0
0
0
0
0
0
0
0
0
0
0
0
0
0
0
0
0
0
0
0
0
0
0
0
0
0
0
0
0
0
0
0
0
0
0
0
0
0
0
0
0
0
0
0
0
0
0
0
0
0
0
0
0
0
0
0
0
0
0
0
0
0
0
0
0
0
0
0
0
0
0
0
0
0
0
0
0
0
0
0
0
0
0
0
0
0
0
0
0
0
0
0
0
0
0
0
0
0
0
0
0
0
0
0
0
0
0
0
0
0
0
0
0
0
0
0
0
0
0
0
0
0
0
0
0
0
0
0
0
0
0
0
0
0
0
0
0
0
0
0
0
0
0
0
0
0
0
0
0
0
0
0
0
0
0
0
0
0
0
0
0
0
0
0
0
0
0
0
0
0
0
0
0
0
0
0
0
0
0
0
0
0
0
0
0
0
0
0
0
0
0
0
0
0
0
0
0
0
0
0
0
0
0
0
0
0
0
0
0
0
0
0
0
0
0
0
0
0
0
0
0
0
0
0
0
0
0
0
0
0
0
0
0
0
0
0
0
0
0
0
0
0
0
0
0
0
0
0
0
0
0
0
0
0
0
0
0
0
0
0
0
0
0
0
0
0
0
0
0
0
0
0
0
0
0
0
0
0
0
0
0
0
0
0
0
0
0
0
0
0
0
0
0
0
0
0
0
0
0
0
0
0
0
0
0
0
0
0
0
0
0
0
0
0
0
0
0
0
0
0
0
0
0
0
0
0
0
0
0
0
SCALARS damp_viscous double 1
LOOKUP_TABLE default
0
0
0
0
0
0
0
0
0
0
0
0
0
0
0
0
0
0
0
0
0
0
0
0
0
0
0
0
0
0
0
0
0
0
0
0
0
0
0
0
0
0
0
0
0
0
0
0
0
0
0
0
0
0
0
0
0
0
0
0
0
0
0
0
0
0
0
0
0
0
0
0
0
0
0
0
0
0
0
0
0
0
0
0
0
0
0
0
0
0
0
0
0
0
0
0
0
0
0
0
0
0
0
0
0
0
0
0
0
0
0
0
0
0
0
0
0
0
0
0
0
0
0
0
0
0
0
0
0
0
0
0
0
0
0
0
0
0
0
0
0
0
0
0
0
0
0
0
0
0
0
0
0
0
0
0
0
0
0
0
0
0
0
0
0
0
0
0
0
0
0
0
0
0
0
0
0
0
0
0
0
0
0
0
0
0
0
0
0
0
0
0
0
0
0
0
0
0
0
0
0
0
0
0
0
0
0
0
0
0
0
0
0
0
0
0
0
0
0
0
0
0
0
0
0
0
0
0
0
0
0
0
0
0
0
0
0
0
0
0
0
0
0
0
0
0
0
0
0
0
0
0
0
0
0
0
0
0
0
0
0
0
0
0
0
0
0
0
0
0
0
0
0
0
0
0
0
0
0
0
0
0
0
0
0
0
0
0
0
0
0
0
0
0
0
0
0
0
0
0
0
0
0
0
0
0
0
0
0
0
0
0
0
0
0
0
0
0
0
0
0
0
0
0
0
0
0
0
0
0
0
0
0
0
0
0
0
0
0
0
0
0
0
0
0
0
0
0
0
0
0
0
0
0
0
0
0
0
0
0
0
0
0
0
0
0
0
0
0
0
0
0
0
0
0
0
0
0
0
0
0
0
0
0
0
0
0
0
0
0
0
0
0
0
0
0
0
0
0
0
0
0
0
0
0
0
0
0
0
0
0
0
0
0
0
0
0
0
0
0
0
0
0
0
0
0
0
0
0
0
0
0
0
0
0
0
0
0
0
0
0
0
0
0
0
0
0
0
0
0
0
0
0
0
0
0
0
0
0
0
0
0
0
0
0
0
0
0
0
0
0
0
0
0
0
0
0
0
0
0
0
0
0
0
0
0
0
0
0
0
0
0
0
0
0
0
0
0
0
0
SCALARS damp_numerical double 1
LOOKUP_TABLE default
0.5
0.5
0.5
0.5
0.5
0.5
0.5
0.5
0.5
0.5
0.5
0.5
0.5
0.5
0.5
0.5
0.5
0.5
0.5
0.5
0.5
0.5
0.5
0.5
0.5
0.5
0.5
0.5
0.5
0.5
0.5
0.5
0.5
0.5
0.5
0.5
0.5
0.5
0.5
0.5
0.5
0.5
0.5
0.5
0.5
0.5
0.5
0.5
0.5
0.5
0.5
0.5
0.5
0.5
0.5
0.5
0.5
0.5
0.5
0.5
0.5
0.5
0.5
0.5
0.5
0.5
0.5
0.5
0.5
0.5
0.5
0.5
0.5
0.5
0.5
0.5
0.5
0.5
0.5
0.5
0.5
0.5
0.5
0.5
0.5
0.5
0.5
0.5
0.5
0.5
0.5
0.5
0.5
0.5
0.5
0.5
0.5
0.5
0.5
0.5
0.5
0.5
0.5
0.5
0.5
0.5
0.5
0.5
0.5
0.5
0.5
0.5
0.5
0.5
0.5
0.5
0.5
0.5
0.5
0.5
0.5
0.5
0.5
0.5
0.5
0.5
0.5
0.5
0.5
0.5
0.5
0.5
0.5
0.5
0.5
0.5
0.5
0.5
0.5
0.5
0.5
0.5
0.5
0.5
0.5
0.5
0.5
0.5
0.5
0.5
0.5
0.5
0.5
0.5
0.5
0.5
0.5
0.5
0.5
0.5
0.5
0.5
0.5
0.5
0.5
0.5
0.5
0.5
0.5
0.5
0.5
0.5
0.5
0.5
0.5
0.5
0.5
0.5
0.5
0.5
0.5
0.5
0.5
0.5
0.5
0.5
0.5
0.5
0.5
0.5
0.5
0.5
0.5
0.5
0.5
0.5
0.5
0.5
0.5
0.5
0.5
0.5
0.5
0.5
0.5
0.5
0.5
0.5
0.5
0.5
0.5
0.5
0.5
0.5
0.5
0.5
0.5
0.5
0.5
0.5
0.5
0.5
0.5
0.5
0.5
0.5
0.5
0.5
0.5
0.5
0.5
0.5
0.5
0.5
0.5
0.5
0.5
0.5
0.5
0.5
0.5
0.5
0.5
0.5
0.5
0.5
0.5
0.5
0.5
0.5
0.5
0.5
0.5
0.5
0.5
0.5
0.5
0.5
0.5
0.5
0.5
0.5
0.5
0.5
0.5
0.5
0.5
0.5
0.5
0.5
0.5
0.5
0.5
0.5
0.5
0.5
0.5
0.5
0.5
0.5
0.5
0.5
0.5
0.5
0.5
0.5
0.5
0.5
0.5
0.5
0.5
0.5
0.5
0.5
0.5
0.5
0.5
0.5
0.5
0.5
0.5
0.5
0.5
0.5
0.5
0.5
0.5
0.5
0.5
0.5
0.5
0.5
0.5
0.5
0.5
0.5
0.5
0.5
0.5
0.5
0.5
0.5
0.5
0.5
0.5
0.5
0.5
0.5
0.5
0.5
0.5
0.5
0.5
0.5
0.5
0.5
0.5
0.5
0.5
0.5
0.5
0.5
0.5
0.5
0.5
0.5
0.5
0.5
0.5
0.5
0.5
0.5
0.5
0.5
0.5
0.5
0.5
0.5
0.5
0.5
0.5
0.5
0.5
0.5
0.5
0.5
0.5
0.5
0.5
0.5
0.5
0.5
0.5
0.5
0.5
0.5
0.5
0.5
0.5
0.5
0.5
0.5
0.5
0.5
0.5
0.5
0.5
0.5
0.5
0.5
0.5
0.5
0.5
0.5
0.5
0.5
0.5
0.5
0.5
0.5
0.5
0.5
0.5
0.5
0.5
0.5
0.5
0.5
0.5
0.5
0.5
0.5
0.5
0.5
0.5
0.5
0.5
0.5
0.5
0.5
0.5
0.5
0.5
0.5
0.5
0.5
0.5
0.5
0.5
0.5
0.5
0.5
0.5
0.5
0.5
0.5
0.5
0.5
0.5
0.5
0.5
0.5
0.5
0.5
0.5
0.5
0.5
0.5
0.5
0.5
0.5
0.5
0.5
0.5
0.5
0.5
0.5
0.5
0.5
0.5
0.5
0.5
0.5
0.5
0.5
0.5
0.5
0.5
0.5
0.5
0.5
0.5
0.5
0.5
0.5
0.5
0.5
0.5
0.5
0.5
0.5
0.5
0.5
0.5
0.5
0.5
0.5
0.5
0.5
0.5
0.5
0.5
0.5
0.5
0.5
0.5
0.5
0.5
0.5
0.5
SCALARS quat double 4
LOOKUP_TABLE default
0.963376 0.0894243 -0.0523409 0.247327 
0.782074 0.15504 0.603551 0.00701233 
0.989236 0.0859865 -0.0725194 -0.0935949 
-0.371984 -0.472037 -0.55884 -0.571407 
0.0568128 0.712973 -0.369909 0.592966 
0.802767 -0.272197 -0.200697 0.491115 
0.134346 -0.325812 -0.278222 0.893527 
0.882 0.0392431 0.330714 0.333413 
-0.109953 0.434493 0.893863 -0.0115743 
0.112153 0.0883973 -0.0245354 0.989447 
0.916552 -0.150345 -0.100787 0.356609 
0.178675 -0.915146 -0.239358 -0.270724 
0.102314 0.395147 -0.0362652 0.912182 
0.589921 0.718776 0.355783 -0.0936619 
0.340782 0.814499 -0.172087 0.436858 
0.996268 0.0788199 -0.0350435 -0.00303592 
0.641264 0.0466555 -0.0442765 0.764619 
0.98527 0.0833606 -0.0146627 0.148591 
0.972035 0.112914 -0.0899129 0.185241 
-0.772979 0.143768 0.610187 0.0975002 
0.837813 0.119158 0.506987 -0.16381 
-0.329437 0.831179 -0.303801 0.329118 
0.795925 -0.227622 -0.496986 -0.260187 
0.550079 0.739143 -0.366005 -0.130844 
0.984103 0.105041 -0.0989038 0.103566 
0.935551 0.154896 -0.169873 0.268132 
-0.579749 0.72747 -0.297918 0.214298 
0.979701 0.164732 -0.0781635 -0.0833108 
0.641526 -0.448324 -0.423555 0.456127 
-0.163527 0.39446 -0.328474 0.842476 
0.732217 0.357955 0.508075 0.278543 
0.417554 -0.649549 -0.143316 -0.619028 
0.108257 -0.0548232 -0.956649 0.264761 
0.180525 0.124747 0.0725695 0.972925 
0.568376 0.718517 0.197338 -0.348912 
0.390508 -0.140054 0.0703463 0.90716 
-0.284555 0.485125 -0.475311 0.676581 
0.232897 0.338574 0.272298 0.870046 
0.724032 -0.636295 -0.258565 0.0636417 
0.57356 0.651178 -0.0987691 -0.487073 
0.946284 0.152977 -0.158672 0.236574 
0.704859 0.199691 -0.100103 0.673258 
0.978849 -0.200046 -0.0389141 0.0179181 
0.012648 0.818792 0.552519 -0.155376 
0.720333 -0.577678 -0.330113 -0.196047 
0.370751 0.282276 -0.693794 0.549102 
0.557191 -0.17754 0.175498 -0.791971 
-0.948139 0.155999 -0.176125 0.213722 
0.445651 0.75977 -0.366127 0.30016 
-0.839265 0.509191 0.105292 -0.158973 
0.927353 0.297867 -0.205656 -0.0948524 
0.328441 -0.119301 0.898939 -0.264201 
0.825573 -0.0755455 0.559215 0.000286584 
-0.673338 0.41953 -0.607982 -0.0311142 
-0.496524 0.505395 0.479146 -0.51813 
-0.613312 0.462479 0.484419 -0.41869 
0.144164 0.209177 0.958954 -0.125967 
0.119868 -0.0369133 -0.829307 -0.544535 
-0.185705 0.025651 0.787784 -0.58673 
0.351353 -0.910583 -0.215419 0.0313728 
-0.452216 0.233677 0.662657 -0.549346 
-0.85997 -0.0614636 0.101441 0.496371 
-0.275259 -0.713399 0.137679 0.629554 
0.0771914 0.240332 0.960168 0.119828 
-0.102809 0.0346268 0.992841 -0.0499807 
0.921049 0.244413 -0.264758 -0.147767 
-0.132488 -0.953049 -0.173661 0.209728 
0.964959 -0.155245 -0.128796 0.167823 
0.89578 0.000468494 0.405256 -0.182606 
-0.915972 -0.102363 -0.119001 -0.369264 
0.628168 -0.338291 -0.233285 0.660713 
-0.555115 -0.751368 -0.346332 -0.0857157 
0.358569 0.354251 0.0321669 -0.863076 
-0.582829 0.748913 -0.293762 -0.114643 
0.946778 -0.244993 0.0191513 -0.207903 
0.960318 0.119082 -0.121503 -0.22101 
0.530198 -0.104953 -0.635345 0.551554 
0.88049 -0.249542 0.38633 -0.114956 
-0.555351 -0.209292 -0.128781 0.79448 
-0.550287 0.176933 -0.115007 -0.807869 
0.884814 0.280626 -0.0100972 -0.371821 
-0.373194 0.88544 -0.014616 0.276601 
0.953432 -0.0901688 0.27213 -0.0937125 
-0.233705 0.820767 -0.276661 0.441794 
0.979741 -0.182446 0.00110185 -0.0825854 
0.765371 -0.468038 -0.407884 0.169641 
-0.177687 -0.316173 0.123191 -0.923735 
0.808858 0.369319 0.298988 -0.34635 
0.318867 0.92556 0.0734912 -0.190424 
-0.16859 0.557235 -0.646524 0.493024 
0.869916 -0.210098 0.352113 -0.274084 
-0.813956 0.373074 -0.445181 0.0102829 
0.890562 -0.0169452 -0.381197 0.247589 
0.854269 -0.350053 0.383175 0.0293935 
0.793394 0.0232692 0.364696 -0.486807 
0.363964 -0.533942 -0.326879 -0.689627 
0.317006 -0.784949 0.471276 0.247512 
0.224958 -0.201164 -0.724712 0.619451 
-0.606708 0.592741 0.132622 -0.51281 
0.983408 -0.0954396 -0.0206651 -0.152885 
0.843288 -0.0746729 -0.105347 -0.521719 
0.282633 0.537135 0.738856 0.29274 
-0.00661966 0.437129 -0.898089 0.0480802 
-0.632713 -0.592444 -0.491768 -0.082754 
-0.221202 -0.0898686 -0.367444 0.898876 
0.93659 -0.153958 0.271054 0.160083 
-0.720067 0.547428 0.188458 -0.382505 
0.119361 0.728396 0.667713 -0.0967044 
0.819262 0.398795 -0.078142 -0.404557 
0.0206225 0.21132 -0.975029 0.0650962 
0.279908 -0.591214 -0.282037 0.701835 
-0.432081 -0.305608 0.628597 0.56989 
-0.0799591 -0.41819 0.263599 -0.865586 
0.809937 -0.268824 0.48957 0.179042 
-0.229127 0.0686632 0.0937642 0.966434 
0.958136 -0.149295 0.228433 0.0866365 
0.0368995 -0.803808 0.586132 0.0947682 
0.460527 -0.077995 -0.394882 0.791139 
0.886468 0.0988033 0.0932676 0.442394 
0.253016 0.150626 -0.812175 0.503653 
6.5688e-05 0.0735507 0.477664 -0.875459 
-0.135532 -0.260988 -0.712007 0.637622 
0.340051 -0.453644 -0.417995 -0.709826 
-0.93485 -0.223507 -0.177708 0.210996 
0.762307 -0.597292 0.0193662 0.248504 
0.779304 0.290552 -0.532884 -0.155883 
0.412275 0.639557 0.551079 -0.342502 
0.520566 0.290028 0.182527 -0.782035 
-0.495367 0.270213 0.8057 -0.180123 
0.443814 -0.446705 0.701911 0.332874 
-0.0106769 0.489944 0.731843 -0.473547 
-0.991088 -0.0430144 -0.0504401 0.115544 
-0.0326227 -0.586118 -0.809557 0.00443651 
0.211069 0.2044 -0.949337 0.111492 
0.133477 -0.899479 0.247784 0.334253 
0.11961 -0.08413 0.815156 0.560478 
0.281307 0.731387 0.22367 0.579579 
-0.686546 -0.718557 0.0672865 -0.0883356 
0.320659 0.908519 -0.177666 -0.200513 
-0.0399672 0.812763 -0.580988 0.016506 
-0.558581 0.108026 -0.821858 0.0294646 
0.441298 -0.24904 0.32101 0.800117 
-0.0911006 0.502741 -0.0997743 0.853814 
0.935685 -0.267958 -0.18696 0.133188 
0.0235415 -0.505752 -0.782291 -0.362881 
-0.450428 -0.833797 0.237459 0.213332 
0.738356 -0.497332 0.354726 -0.285765 