# vtk DataFile Version 2.0
Generated by NetDEM
ASCII 
DATASET POLYDATA
POINTS 300 double
-0.416904 -0.405381 -0.46286 
-0.403333 -0.203333 -0.46475 
-0.409338 -0.0076761 -0.463253 
-0.448568 0.170711 -0.427509 
-0.402763 0.397237 -0.464752 
-0.265429 -0.43214 -0.459385 
-0.203538 -0.203538 -0.464754 
-0.203218 -0.00321788 -0.464752 
-0.175262 0.206246 -0.458116 
-0.246793 0.369083 -0.46505 
-0.0408677 -0.396911 -0.456357 
-0.00366947 -0.203669 -0.464752 
-0.00360232 -0.00360232 -0.464755 
0.0304136 0.186161 -0.452878 
-0.0404048 0.395939 -0.464446 
0.191368 -0.397352 -0.463601 
0.173105 -0.210046 -0.463752 
0.17378 -0.00944739 -0.46185 
0.159495 0.210495 -0.464974 
0.301506 0.410718 -0.375735 
0.396917 -0.401172 -0.450014 
0.402407 -0.294646 -0.431608 
0.380479 -0.0297523 -0.447884 
0.386414 0.072211 -0.450007 
0.370227 0.439542 -0.464796 
-0.40321 -0.399402 -0.388372 
-0.403333 -0.203333 -0.379577 
-0.405077 -0.00992092 -0.389066 
-0.449908 0.178897 -0.234021 
-0.402763 0.397237 -0.379581 
-0.304968 -0.408163 -0.387823 
-0.203538 -0.203538 -0.379585 
-0.203218 -0.00321788 -0.379581 
-0.301666 0.160801 -0.465044 
-0.156964 0.415741 -0.445424 
-0.0563803 -0.391274 -0.381037 
-0.00366947 -0.203669 -0.37958 
-0.00360232 -0.00360232 -0.379587 
0.00377994 0.256168 -0.444129 
0.0511791 0.344914 -0.441232 
0.194264 -0.394504 -0.391342 
0.176604 -0.19108 -0.38602 
0.187379 -0.0115578 -0.383734 
0.197741 0.112195 -0.455778 
0.306047 0.434467 -0.254936 
0.396742 -0.449958 -0.362729 
0.399198 -0.350505 -0.346067 
0.359492 -0.132106 -0.43579 
0.449207 0.0975025 -0.374581 
0.408794 0.356754 -0.451512 
-0.402538 -0.403145 -0.316114 
-0.403333 -0.203333 -0.294476 
-0.380142 -0.00206374 -0.311585 
-0.19886 0.281694 -0.310475 
-0.402763 0.397237 -0.294483 
-0.181566 -0.358988 -0.454293 
-0.203538 -0.203538 -0.294488 
-0.203218 -0.00321788 -0.294482 
-0.186502 0.198301 -0.378678 
-0.208569 0.451158 -0.38489 
0.0263958 -0.429088 -0.342815 
-0.00366947 -0.203669 -0.294481 
-0.00360232 -0.00360232 -0.294492 
-0.0359929 0.247685 -0.355924 
0.19759 0.354335 -0.44571 
0.184074 -0.395601 -0.318004 
0.138113 -0.15273 -0.316385 
0.189218 0.00538523 -0.309643 
0.282136 0.0627215 -0.440691 
0.0552192 0.270853 -0.311013 
0.393668 -0.425299 -0.265416 
0.39994 -0.208919 -0.379757 
0.392999 -0.0801683 -0.343127 
0.44997 0.226335 -0.328398 
0.438837 0.275248 -0.43906 
-0.415771 -0.408507 -0.2435 
-0.403333 -0.203333 -0.209479 
-0.374254 0.0058085 -0.235707 
-0.275183 0.211159 -0.223093 
-0.402763 0.397237 -0.209486 
-0.148712 -0.412516 -0.371303 
-0.203538 -0.203538 -0.209495 
-0.203218 -0.00321788 -0.209486 
-0.110036 0.177439 -0.37842 
-0.254012 0.438916 -0.308741 
0.097247 -0.43704 -0.289848 
-0.00366947 -0.203669 -0.209485 
-0.00360232 -0.00360232 -0.2095 
0.00127854 0.144165 -0.343827 
0.0411519 0.44974 -0.434153 
0.207557 -0.396156 -0.229252 
0.181913 -0.218578 -0.253859 
0.19255 0.00563807 -0.236414 
0.240648 0.177433 -0.403833 
0.104809 0.368913 -0.360459 
0.394219 -0.330352 -0.232259 
0.411444 -0.140939 -0.259875 
0.406945 0.140838 -0.275048 
0.341673 0.322188 -0.298258 
0.413745 0.381198 -0.348569 
-0.416738 -0.411744 -0.154756 
-0.403333 -0.203333 -0.124609 
-0.386602 -0.00304855 -0.156242 
-0.436861 0.179689 -0.124126 
-0.402763 0.397237 -0.124616 
-0.241813 -0.39522 -0.325083 
-0.203538 -0.203538 -0.12463 
-0.203218 -0.00321788 -0.124617 
-0.167493 0.162298 -0.280095 
-0.270877 0.362444 -0.272892 
0.0423574 -0.385907 -0.25101 
-0.00366947 -0.203669 -0.124616 
-0.00360232 -0.00360232 -0.124636 
-0.0262399 0.213377 -0.269507 
-0.0911076 0.442056 -0.364892 
0.202274 -0.401041 -0.157838 
0.220771 -0.300156 -0.201562 
0.186147 0.00238576 -0.163744 
0.202138 0.214366 -0.328223 
0.36516 0.449999 -0.169815 
0.391434 -0.398907 -0.159477 
0.418284 -0.238768 -0.285114 
0.399718 0.00634793 -0.288055 
0.352259 0.234944 -0.23352 
0.400917 0.460142 -0.315878 
-0.414536 -0.405543 -0.0788048 
-0.403333 -0.203333 -0.0398804 
-0.433022 -0.00742147 -0.0953274 
-0.263796 0.199445 -0.10419 
-0.402763 0.397237 -0.0398861 
-0.163923 -0.4041 -0.267994 
-0.203538 -0.203538 -0.039905 
-0.203218 -0.00321788 -0.0398899 
-0.135607 0.194168 -0.201609 
-0.188669 0.368553 -0.219728 
-0.0373488 -0.376371 -0.217464 
-0.00366947 -0.203669 -0.0398876 
-0.00360232 -0.00360232 -0.0399115 
0.00871163 0.209372 -0.200605 
-0.0900096 0.359893 -0.309093 
0.209364 -0.399377 -0.0784663 
0.203698 -0.249379 -0.115769 
0.182751 -0.00119142 -0.0867 
0.202591 0.281443 -0.253515 
0.170533 0.364629 -0.210823 
0.398108 -0.450239 -0.07405 
0.395431 -0.201427 -0.175599 
0.38036 -0.0699621 -0.194039 
0.449997 0.0876644 -0.201734 
0.431057 0.415968 -0.240262 
-0.410601 -0.400715 -0.000840222 
-0.403333 -0.203333 0.0447053 
-0.428704 -0.00551792 0.0052525 
-0.269142 0.248574 -0.0117381 
-0.402763 0.397237 0.0447 
-0.123649 -0.403079 -0.177179 
-0.203538 -0.203538 0.044678 
-0.203218 -0.00321788 0.0446951 
-0.168793 0.23248 -0.113092 
-0.204283 0.400461 -0.151731 
-0.0334179 -0.39866 -0.127154 
-0.00366947 -0.203669 0.044698 
-0.00360232 -0.00360232 0.0446714 
0.0194341 0.18995 -0.13347 
-0.0305847 0.364244 -0.241912 
0.185871 -0.411139 -0.0100555 
0.195404 -0.198391 -0.0474116 
0.186958 -0.00304761 -0.00769842 
0.203095 0.18968 -0.205611 
0.0638705 0.402399 -0.214518 
0.39678 -0.296969 -0.136885 
0.394849 -0.120101 -0.107673 
0.385635 0.0240038 -0.157734 
0.398081 0.325004 -0.213579 
0.434259 0.385331 -0.144571 
-0.409822 -0.400977 0.0772114 
-0.403333 -0.203333 0.129157 
-0.414844 0.000209081 0.0754056 
-0.448951 0.185686 -0.0253246 
-0.402763 0.397237 0.129152 
-0.220686 -0.400005 -0.134126 
-0.203538 -0.203538 0.129128 
-0.203218 -0.00321788 0.129146 
-0.168343 0.196356 -0.0212477 
-0.182527 0.407458 -0.0634672 
-0.000580972 -0.412506 -0.0452872 
-0.00366947 -0.203669 0.12915 
-0.00360232 -0.00360232 0.129122 
-0.0310797 0.211884 -0.0539235 
-0.0286261 0.441997 -0.162867 
0.197468 -0.40639 0.0847615 
0.189317 -0.192555 0.0402592 
0.193308 -0.00731599 0.0690047 
0.203584 0.167448 -0.122241 
0.266856 0.443284 -0.150158 
0.396306 -0.313746 -0.0338823 
0.399555 -0.209121 -0.0581973 
0.390576 0.0322295 -0.0577678 
0.37412 0.227516 -0.12988 
0.391708 0.445397 -0.0746871 
-0.411413 -0.404382 0.155448 
-0.403333 -0.203333 0.213489 
-0.399348 -0.00130274 0.149595 
-0.333927 0.165371 0.0381095 
-0.402763 0.397237 0.213486 
-0.209187 -0.406229 -0.0267145 
-0.203538 -0.203538 0.213462 
-0.203218 -0.00321788 0.21348 
-0.180974 0.179955 0.0824464 
-0.209312 0.396849 0.0104942 
-0.00309525 -0.399469 0.0509819 
-0.00366947 -0.203669 0.213483 
-0.00360232 -0.00360232 0.213457 
-0.00757587 0.200195 0.0417586 
-0.0133361 0.403993 -0.0763498 
0.196205 -0.404933 0.155738 
0.195602 -0.197815 0.131499 
0.194224 -0.00948201 0.142745 
0.187395 0.204735 -0.0424032 
0.19662 0.373361 -0.114572 
0.396909 -0.449385 0.0250466 
0.396677 -0.24305 0.0409378 
0.395504 -0.0564232 -0.00957981 
0.40676 0.133124 -0.123276 
0.395985 0.396923 0.00735387 
-0.408549 -0.410052 0.234484 
-0.403333 -0.203333 0.465987 
-0.402407 -0.00415399 0.226474 
-0.382278 0.217104 0.447894 
-0.402763 0.397237 0.465988 
-0.201031 -0.400521 0.0996392 
-0.203538 -0.203538 0.465978 
-0.203218 -0.00321788 0.465984 
-0.202193 0.195189 0.17478 
-0.205559 0.390283 0.0970142 
-0.00195723 -0.399495 0.145713 
-0.00366947 -0.203669 0.465985 
-0.00360232 -0.00360232 0.465976 
0.0123372 0.189548 0.145462 
-0.0162161 0.389159 0.0363292 
0.20168 -0.398999 0.231187 
0.201951 -0.219145 0.208214 
0.191917 -0.00571413 0.223431 
0.19694 0.19883 0.0514226 
0.204209 0.407504 0.446464 
0.396615 -0.402566 0.425643 
0.396603 -0.200457 0.438247 
0.39687 0.0032037 0.438761 
0.391011 0.234369 0.448463 
0.397488 0.399091 0.109548 
-0.405306 -0.401209 0.316908 
-0.403333 -0.203333 0.297724 
-0.4062 -0.00572636 0.309396 
-0.298838 0.213226 0.129189 
-0.402763 0.397237 0.297723 
-0.201651 -0.402471 0.215819 
-0.203538 -0.203538 0.2977 
-0.203218 -0.00321788 0.297716 
-0.204028 0.196576 0.265731 
-0.200115 0.39624 0.192652 
-0.00480526 -0.406595 0.240394 
-0.00366947 -0.203669 0.297719 
-0.00360232 -0.00360232 0.297696 
-0.00251414 0.20082 0.234334 
-0.00317737 0.397288 0.124098 
0.191324 -0.400468 0.308019 
0.19432 -0.199894 0.31606 
0.191611 -0.00275009 0.298902 
0.196487 0.195394 0.155784 
0.137409 0.370555 0.0130189 
0.397018 -0.408362 0.118958 
0.396198 -0.194471 0.143492 
0.396189 -0.00656595 0.0774045 
0.403038 0.200838 0.02066 
0.397696 0.395613 0.218301 
-0.402794 -0.40395 0.399315 
-0.403333 -0.203333 0.381882 
-0.406042 -0.00158456 0.395233 
-0.449926 0.137079 0.385166 
-0.402763 0.397237 0.381883 
-0.203099 -0.403099 0.334686 
-0.203538 -0.203538 0.381865 
-0.203218 -0.00321788 0.381876 
-0.203791 0.195918 0.36355 
-0.203347 0.396653 0.334438 
-0.00299615 -0.403029 0.338189 
-0.00366947 -0.203669 0.381878 
-0.00360232 -0.00360232 0.381861 
-0.00192074 0.19771 0.345229 
-0.00266816 0.397332 0.335117 
0.19892 -0.402343 0.394026 
0.203103 -0.203027 0.421343 
0.19628 -0.00288733 0.380778 
0.197198 0.197198 0.334983 
0.146833 0.324481 0.319432 
0.396555 -0.366396 0.209364 
0.396696 -0.221831 0.247675 
0.393586 -0.054368 0.168985 
0.409012 0.110366 0.383712 
0.396534 0.396534 0.334319 
VERTICES 300 600
1 0
1 1
1 2
1 3
1 4
1 5
1 6
1 7
1 8
1 9
1 10
1 11
1 12
1 13
1 14
1 15
1 16
1 17
1 18
1 19
1 20
1 21
1 22
1 23
1 24
1 25
1 26
1 27
1 28
1 29
1 30
1 31
1 32
1 33
1 34
1 35
1 36
1 37
1 38
1 39
1 40
1 41
1 42
1 43
1 44
1 45
1 46
1 47
1 48
1 49
1 50
1 51
1 52
1 53
1 54
1 55
1 56
1 57
1 58
1 59
1 60
1 61
1 62
1 63
1 64
1 65
1 66
1 67
1 68
1 69
1 70
1 71
1 72
1 73
1 74
1 75
1 76
1 77
1 78
1 79
1 80
1 81
1 82
1 83
1 84
1 85
1 86
1 87
1 88
1 89
1 90
1 91
1 92
1 93
1 94
1 95
1 96
1 97
1 98
1 99
1 100
1 101
1 102
1 103
1 104
1 105
1 106
1 107
1 108
1 109
1 110
1 111
1 112
1 113
1 114
1 115
1 116
1 117
1 118
1 119
1 120
1 121
1 122
1 123
1 124
1 125
1 126
1 127
1 128
1 129
1 130
1 131
1 132
1 133
1 134
1 135
1 136
1 137
1 138
1 139
1 140
1 141
1 142
1 143
1 144
1 145
1 146
1 147
1 148
1 149
1 150
1 151
1 152
1 153
1 154
1 155
1 156
1 157
1 158
1 159
1 160
1 161
1 162
1 163
1 164
1 165
1 166
1 167
1 168
1 169
1 170
1 171
1 172
1 173
1 174
1 175
1 176
1 177
1 178
1 179
1 180
1 181
1 182
1 183
1 184
1 185
1 186
1 187
1 188
1 189
1 190
1 191
1 192
1 193
1 194
1 195
1 196
1 197
1 198
1 199
1 200
1 201
1 202
1 203
1 204
1 205
1 206
1 207
1 208
1 209
1 210
1 211
1 212
1 213
1 214
1 215
1 216
1 217
1 218
1 219
1 220
1 221
1 222
1 223
1 224
1 225
1 226
1 227
1 228
1 229
1 230
1 231
1 232
1 233
1 234
1 235
1 236
1 237
1 238
1 239
1 240
1 241
1 242
1 243
1 244
1 245
1 246
1 247
1 248
1 249
1 250
1 251
1 252
1 253
1 254
1 255
1 256
1 257
1 258
1 259
1 260
1 261
1 262
1 263
1 264
1 265
1 266
1 267
1 268
1 269
1 270
1 271
1 272
1 273
1 274
1 275
1 276
1 277
1 278
1 279
1 280
1 281
1 282
1 283
1 284
1 285
1 286
1 287
1 288
1 289
1 290
1 291
1 292
1 293
1 294
1 295
1 296
1 297
1 298
1 299
POINT_DATA 300
SCALARS id int 1
LOOKUP_TABLE default
0
1
2
3
4
5
6
7
8
9
10
11
12
13
14
15
16
17
18
19
20
21
22
23
24
25
26
27
28
29
30
31
32
33
34
35
36
37
38
39
40
41
42
43
44
45
46
47
48
49
50
51
52
53
54
55
56
57
58
59
60
61
62
63
64
65
66
67
68
69
70
71
72
73
74
75
76
77
78
79
80
81
82
83
84
85
86
87
88
89
90
91
92
93
94
95
96
97
98
99
100
101
102
103
104
105
106
107
108
109
110
111
112
113
114
115
116
117
118
119
120
121
122
123
124
125
126
127
128
129
130
131
132
133
134
135
136
137
138
139
140
141
142
143
144
145
146
147
148
149
150
151
152
153
154
155
156
157
158
159
160
161
162
163
164
165
166
167
168
169
170
171
172
173
174
175
176
177
178
179
180
181
182
183
184
185
186
187
188
189
190
191
192
193
194
195
196
197
198
199
200
201
202
203
204
205
206
207
208
209
210
211
212
213
214
215
216
217
218
219
220
221
222
223
224
225
226
227
228
229
230
231
232
233
234
235
236
237
238
239
240
241
242
243
244
245
246
247
248
249
250
251
252
253
254
255
256
257
258
259
260
261
262
263
264
265
266
267
268
269
270
271
272
273
274
275
276
277
278
279
280
281
282
283
284
285
286
287
288
289
290
291
292
293
294
295
296
297
298
299
SCALARS type int 1
LOOKUP_TABLE default
0
0
0
0
0
0
0
0
0
0
0
0
0
0
0
0
0
0
0
0
0
0
0
0
0
0
0
0
0
0
0
0
0
0
0
0
0
0
0
0
0
0
0
0
0
0
0
0
0
0
0
0
0
0
0
0
0
0
0
0
0
0
0
0
0
0
0
0
0
0
0
0
0
0
0
0
0
0
0
0
0
0
0
0
0
0
0
0
0
0
0
0
0
0
0
0
0
0
0
0
0
0
0
0
0
0
0
0
0
0
0
0
0
0
0
0
0
0
0
0
0
0
0
0
0
0
0
0
0
0
0
0
0
0
0
0
0
0
0
0
0
0
0
0
0
0
0
0
0
0
0
0
0
0
0
0
0
0
0
0
0
0
0
0
0
0
0
0
0
0
0
0
0
0
0
0
0
0
0
0
0
0
0
0
0
0
0
0
0
0
0
0
0
0
0
0
0
0
0
0
0
0
0
0
0
0
0
0
0
0
0
0
0
0
0
0
0
0
0
0
0
0
0
0
0
0
0
0
0
0
0
0
0
0
0
0
0
0
0
0
0
0
0
0
0
0
0
0
0
0
0
0
0
0
0
0
0
0
0
0
0
0
0
0
0
0
0
0
0
0
0
0
0
0
0
0
0
0
0
0
0
0
0
0
0
0
0
0
0
0
0
0
0
0
0
0
0
0
0
0
SCALARS damp_viscous double 1
LOOKUP_TABLE default
0
0
0
0
0
0
0
0
0
0
0
0
0
0
0
0
0
0
0
0
0
0
0
0
0
0
0
0
0
0
0
0
0
0
0
0
0
0
0
0
0
0
0
0
0
0
0
0
0
0
0
0
0
0
0
0
0
0
0
0
0
0
0
0
0
0
0
0
0
0
0
0
0
0
0
0
0
0
0
0
0
0
0
0
0
0
0
0
0
0
0
0
0
0
0
0
0
0
0
0
0
0
0
0
0
0
0
0
0
0
0
0
0
0
0
0
0
0
0
0
0
0
0
0
0
0
0
0
0
0
0
0
0
0
0
0
0
0
0
0
0
0
0
0
0
0
0
0
0
0
0
0
0
0
0
0
0
0
0
0
0
0
0
0
0
0
0
0
0
0
0
0
0
0
0
0
0
0
0
0
0
0
0
0
0
0
0
0
0
0
0
0
0
0
0
0
0
0
0
0
0
0
0
0
0
0
0
0
0
0
0
0
0
0
0
0
0
0
0
0
0
0
0
0
0
0
0
0
0
0
0
0
0
0
0
0
0
0
0
0
0
0
0
0
0
0
0
0
0
0
0
0
0
0
0
0
0
0
0
0
0
0
0
0
0
0
0
0
0
0
0
0
0
0
0
0
0
0
0
0
0
0
0
0
0
0
0
0
0
0
0
0
0
0
0
0
0
0
0
0
SCALARS damp_numerical double 1
LOOKUP_TABLE default
0.5
0.5
0.5
0.5
0.5
0.5
0.5
0.5
0.5
0.5
0.5
0.5
0.5
0.5
0.5
0.5
0.5
0.5
0.5
0.5
0.5
0.5
0.5
0.5
0.5
0.5
0.5
0.5
0.5
0.5
0.5
0.5
0.5
0.5
0.5
0.5
0.5
0.5
0.5
0.5
0.5
0.5
0.5
0.5
0.5
0.5
0.5
0.5
0.5
0.5
0.5
0.5
0.5
0.5
0.5
0.5
0.5
0.5
0.5
0.5
0.5
0.5
0.5
0.5
0.5
0.5
0.5
0.5
0.5
0.5
0.5
0.5
0.5
0.5
0.5
0.5
0.5
0.5
0.5
0.5
0.5
0.5
0.5
0.5
0.5
0.5
0.5
0.5
0.5
0.5
0.5
0.5
0.5
0.5
0.5
0.5
0.5
0.5
0.5
0.5
0.5
0.5
0.5
0.5
0.5
0.5
0.5
0.5
0.5
0.5
0.5
0.5
0.5
0.5
0.5
0.5
0.5
0.5
0.5
0.5
0.5
0.5
0.5
0.5
0.5
0.5
0.5
0.5
0.5
0.5
0.5
0.5
0.5
0.5
0.5
0.5
0.5
0.5
0.5
0.5
0.5
0.5
0.5
0.5
0.5
0.5
0.5
0.5
0.5
0.5
0.5
0.5
0.5
0.5
0.5
0.5
0.5
0.5
0.5
0.5
0.5
0.5
0.5
0.5
0.5
0.5
0.5
0.5
0.5
0.5
0.5
0.5
0.5
0.5
0.5
0.5
0.5
0.5
0.5
0.5
0.5
0.5
0.5
0.5
0.5
0.5
0.5
0.5
0.5
0.5
0.5
0.5
0.5
0.5
0.5
0.5
0.5
0.5
0.5
0.5
0.5
0.5
0.5
0.5
0.5
0.5
0.5
0.5
0.5
0.5
0.5
0.5
0.5
0.5
0.5
0.5
0.5
0.5
0.5
0.5
0.5
0.5
0.5
0.5
0.5
0.5
0.5
0.5
0.5
0.5
0.5
0.5
0.5
0.5
0.5
0.5
0.5
0.5
0.5
0.5
0.5
0.5
0.5
0.5
0.5
0.5
0.5
0.5
0.5
0.5
0.5
0.5
0.5
0.5
0.5
0.5
0.5
0.5
0.5
0.5
0.5
0.5
0.5
0.5
0.5
0.5
0.5
0.5
0.5
0.5
0.5
0.5
0.5
0.5
0.5
0.5
0.5
0.5
0.5
0.5
0.5
0.5
0.5
0.5
0.5
0.5
0.5
0.5
0.5
0.5
0.5
0.5
0.5
0.5
0.5
0.5
0.5
0.5
0.5
0.5
SCALARS quat double 4
LOOKUP_TABLE default
0.980193 0.0851448 -0.0195184 0.177739 
0.422936 0.19358 0.881935 0.076436 
0.996457 0.0671187 -0.0500041 -0.00824343 
0.146152 -0.00114048 -0.97944 -0.139054 
0.218235 0.323535 0.831742 0.394847 
0.810246 -0.222334 -0.169692 0.515046 
0.259029 0.245797 0.696789 0.622072 
0.947128 0.0660144 0.273627 0.154011 
0.0887312 0.906637 0.407711 0.0625081 
0.286461 0.132059 0.0584898 0.947143 
0.911199 -0.106448 0.0598253 0.393453 
0.895604 0.01201 0.325206 0.3033 
0.115508 0.577388 0.641376 0.491851 
0.606983 0.722409 0.323725 -0.0699873 
0.792111 0.0916411 -0.0491597 0.601452 
0.997863 0.0356075 -0.0547773 -0.000848427 
0.658998 0.10178 0.0130869 0.745112 
0.975004 0.0822045 -0.0015911 0.206417 
0.969984 0.111644 -0.0851692 0.198529 
-0.395635 0.323186 0.859594 -0.0110433 
0.999814 -0.0145285 0.00208908 -0.0124798 
-0.0811793 0.523236 -0.431168 0.730567 
0.779237 0.275623 -0.0926484 0.555192 
0.437902 0.844786 -0.252924 -0.17495 
0.985683 0.087998 -0.0953959 0.107633 
0.982959 0.107978 -0.0618418 0.135305 
0.422936 0.19358 0.881935 0.076436 
0.99238 0.0177739 -0.10576 0.0606753 
0.282526 -0.202274 -0.926981 0.141318 
0.218235 0.323535 0.831742 0.394847 
0.799697 0.152188 0.525953 0.246365 
0.259029 0.245797 0.696789 0.622072 
0.947128 0.0660144 0.273627 0.154011 
0.315167 0.133691 0.0543593 0.937999 
0.415056 0.752619 0.371843 -0.350751 
0.674166 0.188929 0.0484326 0.712362 
0.895604 0.01201 0.325206 0.3033 
0.115508 0.577388 0.641376 0.491851 
0.706986 -0.590816 -0.382761 0.0678322 
0.159602 0.821838 0.289595 -0.463943 
0.963093 0.0737449 -0.16575 0.198848 
0.776003 0.0192026 -0.0136846 0.630289 
0.980236 0.0699542 0.0613964 0.174571 
0.0257336 0.803867 0.576458 -0.144334 
0.75839 0.0705156 -0.638269 0.111734 
0.872084 0.48926 0.00483349 -0.00840262 
0.290133 -0.417403 0.724742 -0.465131 
-0.232 0.775482 -0.5872 0.000488474 
0.235259 0.926466 -0.0414243 0.290856 
-0.698385 0.695546 0.165792 -0.0314033 
0.966128 0.159288 -0.196738 0.0501754 
0.422936 0.19358 0.881935 0.076436 
0.988214 0.029631 -0.117845 0.0930984 
0.946886 0.0137954 -0.160222 -0.278469 
0.218235 0.323535 0.831742 0.394847 
-0.485584 0.381824 0.456476 -0.64035 
0.259029 0.245797 0.696789 0.622072 
0.947128 0.0660144 0.273627 0.154011 
-0.43231 0.326147 0.218597 -0.811758 
0.246491 -0.519937 -0.116617 0.809511 
0.0783405 0.733416 0.658795 -0.148167 
0.895604 0.01201 0.325206 0.3033 
0.115508 0.577388 0.641376 0.491851 
-0.262618 0.567088 0.755577 0.196334 
0.365947 0.315727 0.875423 -0.00581058 
0.934115 0.156801 -0.293415 0.129424 
0.656791 0.189716 -0.0830442 0.725077 
0.99248 0.0484077 0.0298188 0.1084 
0.86005 -0.0113688 0.485349 -0.156912 
-0.784431 -0.423782 -0.243786 -0.381634 
0.727265 -0.684718 -0.045414 0.0136137 
0.110596 -0.516335 0.80687 -0.264818 
-0.683031 0.150582 -0.591957 -0.400476 
-0.803915 -0.337786 -0.202214 -0.445793 
0.850241 -0.486471 0.0314349 -0.198615 
0.935271 0.172419 -0.305193 0.0489681 
0.422936 0.19358 0.881935 0.076436 
0.963575 0.0692132 -0.249889 0.0654805 
0.0807022 -0.0571586 0.971814 -0.214004 
0.218235 0.323535 0.831742 0.394847 
0.837218 0.388907 -0.261196 -0.282123 
0.259029 0.245797 0.696789 0.622072 
0.947128 0.0660144 0.273627 0.154011 
-0.0761254 0.804854 -0.0265834 0.58797 
0.00452542 0.660422 0.226115 0.716027 
0.892361 -0.138757 0.163646 0.397063 
0.895604 0.01201 0.325206 0.3033 
0.115508 0.577388 0.641376 0.491851 
0.880883 0.468193 -0.0293004 -0.0631043 
0.272598 -0.869267 0.00370294 0.412373 
0.984741 0.172818 -0.0130603 -0.0157547 
0.193283 0.958635 -0.119672 0.171285 
0.96798 0.073337 -0.013726 0.239683 
0.985154 -0.0640779 0.0324102 0.155931 
0.783553 0.302182 0.0428914 0.541195 
0.90793 -0.40411 -0.030057 -0.10703 
0.285741 0.222819 0.265076 0.893554 
0.810093 -0.337581 0.109838 0.466609 
0.0143543 0.86445 -0.285746 -0.413364 
0.923639 0.308828 0.192698 -0.119935 
0.984893 0.113125 -0.0892034 0.0960815 
0.422936 0.19358 0.881935 0.076436 
0.870881 0.181499 -0.455932 -0.0274133 
0.904088 0.0250529 -0.361415 0.226662 
0.218235 0.323535 0.831742 0.394847 
0.917156 -0.260981 0.127152 0.273031 
0.259029 0.245797 0.696789 0.622072 
0.947128 0.0660144 0.273627 0.154011 
0.590784 0.794421 0.0939278 0.105109 
0.378559 0.537892 -0.569209 0.493323 
0.824799 -0.309968 -0.240537 0.407146 
0.895604 0.01201 0.325206 0.3033 
0.115508 0.577388 0.641376 0.491851 
0.974293 -0.0770212 0.123041 -0.172283 
0.500013 0.11159 -0.474639 0.715718 
0.969959 0.197166 -0.142489 -0.00148745 
0.727785 0.316774 -0.260998 0.549421 
0.943253 0.109914 -0.0675232 0.305996 
0.903922 0.0123146 0.190838 0.382564 
0.578345 0.367047 -0.556029 0.47077 
0.391623 0.91691 0.0600479 -0.0479761 
-0.0128515 0.385222 -0.3861 0.838072 
-0.731381 0.265173 -0.478674 -0.406984 
-0.834686 -0.530909 -0.0427342 0.14003 
0.772919 -0.593331 0.151688 0.165964 
0.976837 0.124499 -0.128723 0.11713 
0.422936 0.19358 0.881935 0.076436 
0.853829 0.140134 -0.500968 0.0192202 
-0.146999 -0.12177 0.962222 -0.194146 
0.218235 0.323535 0.831742 0.394847 
-0.298126 0.308958 0.876537 0.217597 
0.259029 0.245797 0.696789 0.622072 
0.947128 0.0660144 0.273627 0.154011 
0.116314 0.9235 0.363545 0.0381367 
0.273159 0.62089 0.681842 -0.273808 
0.757266 0.0263942 -0.300278 0.579382 
0.895604 0.01201 0.325206 0.3033 
0.115508 0.577388 0.641376 0.491851 
-0.123119 0.818584 0.543114 -0.140675 
0.449173 0.803048 0.277663 -0.276152 
0.948026 0.194977 -0.249406 0.0320387 
0.819922 -0.227774 0.175212 0.495123 
0.958353 0.112568 -0.0466154 0.258292 
0.97433 0.155047 0.138128 0.0869568 
-0.549012 -0.0479899 -0.638469 -0.537252 
0.794981 -0.60651 0.00295777 -0.0119574 
0.49829 -0.112017 0.85696 0.0691271 
0.707368 -0.420761 0.459994 0.333161 
-0.185666 -0.964596 0.185211 -0.0279321 
-0.351618 0.934497 0.0525314 0.0179332 
0.967595 0.151482 -0.136553 0.148884 
0.422936 0.19358 0.881935 0.076436 
0.988461 0.0802322 0.115981 -0.05528 
-0.708462 -0.157545 -0.666791 0.169265 
0.218235 0.323535 0.831742 0.394847 
0.713839 -0.5767 -0.392537 0.0613589 
0.259029 0.245797 0.696789 0.622072 
0.947128 0.0660144 0.273627 0.154011 
0.414206 0.639313 0.166448 0.626106 
0.194272 -0.224314 -0.0636327 0.952834 
0.566905 0.501119 0.537889 0.371716 
0.895604 0.01201 0.325206 0.3033 
0.115508 0.577388 0.641376 0.491851 
0.985968 0.149301 -0.0460746 -0.0587744 
0.846589 -0.475547 0.226626 0.0760429 
0.900254 0.214615 -0.374467 0.0570744 
0.748255 0.255821 0.00977298 0.612025 
0.968991 0.109106 0.0184132 0.220936 
0.19107 0.97353 0.0633339 0.108265 
-0.0602016 -0.369579 0.440971 -0.815679 
0.0174375 -0.999798 -0.000235788 0.00994683 
0.361591 0.311076 0.590667 0.650843 
0.903933 -0.238316 0.28236 0.21537 
-0.114624 -0.950842 0.210416 0.196178 
0.853339 -0.387984 -0.326135 -0.122133 
0.963589 0.179464 -0.138893 0.141414 
0.422936 0.19358 0.881935 0.076436 
0.991922 0.118209 -0.0459237 0.00294093 
0.287176 0.669095 0.66553 -0.164049 
0.218235 0.323535 0.831742 0.394847 
0.854694 0.0871483 0.377131 0.345941 
0.259029 0.245797 0.696789 0.622072 
0.947128 0.0660144 0.273627 0.154011 
-0.181214 0.918442 0.0275848 0.350522 
0.00209036 0.833713 0.479259 0.274278 
0.895798 0.26562 0.24723 0.256649 
0.895604 0.01201 0.325206 0.3033 
0.115508 0.577388 0.641376 0.491851 
0.87389 0.472445 0.112994 0.0185551 
0.772204 0.485075 0.258752 0.318514 
0.995146 0.0629648 0.0245136 -0.0715451 
0.600327 0.421331 -0.14943 0.663143 
0.970794 0.109975 0.0375337 0.209893 
0.995022 -0.0875525 0.0164085 0.0446808 
0.756638 0.139747 -0.502127 0.394763 
-0.389641 0.920955 -0.000157173 0.00468122 
0.0939512 0.483688 -0.161559 0.855055 
0.626263 0.640158 0.00463901 0.444939 
-0.768421 0.578846 -0.227072 0.151343 
0.119406 0.933858 0.284998 0.180074 
0.964832 0.206354 -0.135011 0.0910499 
0.422936 0.19358 0.881935 0.076436 
0.973 0.147453 -0.172302 0.0429125 
0.780224 -0.0465726 0.620335 -0.0653188 
0.218235 0.323535 0.831742 0.394847 
0.695045 -0.00155091 0.680243 0.232764 
0.259029 0.245797 0.696789 0.622072 
0.947128 0.0660144 0.273627 0.154011 
0.259216 0.791196 0.259473 0.489376 
0.246166 -0.254777 -0.208145 0.911683 
0.906145 0.167299 0.304378 0.241384 
0.895604 0.01201 0.325206 0.3033 
0.115508 0.577388 0.641376 0.491851 
0.372221 0.70586 0.555883 -0.232823 
0.418601 0.654269 -0.166713 0.607381 
0.989358 0.0911223 -0.109872 0.0281982 
0.741521 0.306333 0.0275101 0.59628 
0.98194 0.0877537 -0.0148005 0.166955 
0.945888 0.0154512 0.245816 0.211264 
0.443028 0.0446936 -0.859395 0.251334 
0.712242 -0.701925 0.00320024 -0.00169658 
0.50729 -0.060917 0.837908 0.191978 
0.74766 0.356181 0.0490242 0.558334 
0.579092 -0.735322 0.341018 -0.0875281 
0.939801 0.289848 0.180648 -0.0113632 
0.968322 0.172673 -0.126533 0.128556 
0.422936 0.19358 0.881935 0.076436 
0.950161 0.182465 -0.25186 -0.0216077 
0.921568 0.179183 -0.0493227 0.340841 
0.218235 0.323535 0.831742 0.394847 
0.834569 -0.00853454 0.476542 0.276279 
0.259029 0.245797 0.696789 0.622072 
0.947128 0.0660144 0.273627 0.154011 
0.257779 0.799436 0.393481 0.373664 
-0.0921679 0.734359 0.582739 0.335616 
0.854025 0.331734 0.287766 0.278898 
0.895604 0.01201 0.325206 0.3033 
0.115508 0.577388 0.641376 0.491851 
0.967953 0.199591 0.0281157 0.1498 
0.850319 0.344173 0.192585 0.348445 
0.962976 0.0901881 -0.21547 0.134596 
0.562853 0.537652 -0.129675 0.614257 
0.985301 -0.0165448 0.0457592 0.163752 
0.803684 0.453017 0.278228 0.267316 
0.873909 0.104482 0.200931 0.430109 
0.999837 0.0180399 0.00117629 0.000376718 
0.459672 0.208176 0.625156 0.595437 
0.798686 0.191974 0.184266 0.539715 
0.935525 0.259123 0.149797 0.187639 
0.778293 0.584451 0.229471 0.00453216 
0.987143 0.0531013 -0.0622665 0.137298 
0.422936 0.19358 0.881935 0.076436 
0.970965 0.0125286 -0.230669 0.0621407 
0.643513 -0.188839 -0.659421 0.339698 
0.218235 0.323535 0.831742 0.394847 
0.763649 0.0254618 0.588154 0.265077 
0.259029 0.245797 0.696789 0.622072 
0.947128 0.0660144 0.273627 0.154011 
0.00285021 0.829322 0.403187 0.386855 
0.30898 0.290287 0.21982 0.878604 
0.886248 0.313214 0.228415 0.253551 
0.895604 0.01201 0.325206 0.3033 
0.115508 0.577388 0.641376 0.491851 
0.734584 0.56767 0.371353 -0.0153083 
0.826986 0.383005 0.137298 0.388008 
0.955922 0.150698 -0.249444 0.0357808 
0.692173 -0.213997 0.220163 0.653169 
0.974376 0.0430713 0.0264272 0.219174 
0.898592 0.274364 0.247696 0.23644 
0.44325 -0.026973 0.890291 0.100917 
0.996307 -0.0858193 -0.00258054 -0.00121842 
0.436992 0.250101 0.571603 0.647887 
0.816091 -0.0485411 0.352392 0.455477 
0.882475 -0.459256 0.0744081 0.0691769 
0.857538 0.458194 0.233852 0.000163163 
0.914512 0.321947 -0.235888 0.0661412 
0.422936 0.19358 0.881935 0.076436 
0.968323 0.197483 -0.151785 0.0176683 
0.962738 0.154194 -0.0906387 0.202841 
0.218235 0.323535 0.831742 0.394847 
0.822268 0.00687642 0.488428 0.292003 
0.259029 0.245797 0.696789 0.622072 
0.947128 0.0660144 0.273627 0.154011 
0.105504 0.811476 0.428784 0.38278 
0.241786 0.448885 0.409847 0.756351 
0.90672 0.198189 0.313401 0.200896 
0.895604 0.01201 0.325206 0.3033 
0.115508 0.577388 0.641376 0.491851 
0.832914 0.484739 0.261978 0.0514817 
0.824488 0.388943 0.180706 0.369174 
0.990625 0.0743312 -0.112758 0.0205635 
0.54739 0.668207 -0.314233 0.393854 
0.969705 0.0398242 0.113163 0.212794 
0.894099 0.242412 0.307197 0.217838 
0.81018 -0.0628723 0.483064 0.326043 
0.917794 0.397057 -0.000191346 0.000725051 
0.454159 0.219432 0.611606 0.60953 
0.818953 0.0170384 0.30943 0.48299 
0.967518 0.108267 0.155202 0.167627 
0.85666 0.475253 0.200024 0.0160836 
VECTORS vel double
-0.000113855 -0.000114212 0.00102502 
0 0 -0.147504 
0.0369218 0.00562377 0.0132084 
0.013958 -0.202092 -0.235748 
0 0 -0.148471 
0.00866288 -0.00109481 0.000152664 
0 0 -0.148666 
0 0 -0.147736 
0.0494412 -0.0454363 -0.0313934 
-0.000306796 -0.00106634 -0.000476706 
-0.0479388 -0.0349982 -0.0305615 
0 0 -0.147998 
0 0 -0.148932 
0.0159165 0.015378 -0.00383026 
-0.000940081 0.00182085 0.00129927 
0.00222593 -0.0091072 0.000519633 
-0.0183599 0.0368868 0.0171523 
0.00221233 -0.00203294 -0.00431552 
-0.00416194 -0.00432755 -0.00141404 
0.331787 -0.0686499 -0.0167048 
0.00618183 0.0168849 -0.000189576 
0.100171 -0.150515 -0.289043 
-0.287814 0.173518 -0.0121455 
0.120686 0.29251 1.8872e-08 
-0.00150534 -0.0168023 -0.00308947 
-0.00468718 0.000456677 -0.000606264 
0 0 -0.300668 
0.0876926 0.0066903 -0.00392733 
0.00329548 -0.0350526 -0.49109 
0 0 -0.301855 
-0.00796374 -0.00825108 -0.035891 
0 0 -0.302979 
0 0 -0.301115 
-5.92788e-05 -9.42989e-05 -3.58502e-05 
-0.00601969 0.030928 -0.00976293 
-0.096067 -0.100093 -0.0111384 
0 0 -0.301613 
0 0 -0.303522 
0.0459364 -0.0159451 -0.0074659 
0.00114222 -0.00228003 -0.00109316 
0.0379058 0.00169161 0.00777244 
-0.0755715 0.0604001 -0.0155522 
0.00753903 0.0116398 -0.0102337 
-0.0322135 -0.0011664 -0.011179 
-0.0111357 -0.048167 -0.0829348 
0.00223107 -0.00308494 -0.0114494 
0.0244447 -0.560922 -0.902008 
-0.798942 -0.39923 -1.33273 
0.413056 0.44047 -0.20479 
0.176855 -0.0816776 -0.000476819 
-0.0117454 0.000747017 0.00133711 
0 0 -0.445074 
0.114567 0.0392185 -0.00858697 
0.441445 0.654996 -0.361401 
0 0 -0.445064 
0.0056363 -0.0374436 0.00352325 
0 0 -0.448388 
0 0 -0.445708 
0.0311674 -0.0535802 -0.0207937 
-0.0578738 0.0245769 -0.0402872 
0.00174595 -0.0324802 -0.0971496 
0 0 -0.446416 
0 0 -0.449176 
-0.0354757 0.0290723 -0.079644 
0.544594 -0.0159961 -0.0920446 
0.108786 0.0284794 0.0172328 
-0.240978 0.188958 -0.148162 
0.00455617 0.0158853 -0.0218964 
-0.068009 0.0164484 -0.0174891 
0.172396 -0.287831 -0.243325 
-0.0891132 0.27017 -0.0397693 
0.105183 0.165805 -0.72669 
-0.0789893 -0.0903547 -1.09248 
-0.00102377 0.239877 -1.44221 
0.143722 -0.127598 -0.860833 
-0.0227472 -0.0186594 -0.00650828 
0 0 -0.57546 
0.151215 0.101964 -0.0207535 
1.17617 0.0343323 -1.02879 
0 0 -0.573475 
-0.0458431 -0.0793854 -0.0159109 
0 0 -0.5795 
0 0 -0.576233 
0.00746616 -0.0143417 -0.233058 
-0.290273 0.0306527 -0.137878 
0.0377868 -0.00329252 -0.0270929 
0 0 -0.577118 
0 0 -0.580424 
0.19928 -0.250333 -0.184125 
0.000623795 0.0217743 -0.373676 
0.108925 0.0501783 -0.0139358 
-0.047966 -0.0996741 -0.452057 
-0.00437048 0.0143287 -0.0208759 
0.15236 -0.065749 -0.27192 
0.00680049 -0.218397 -2.09456 
-0.0617195 0.384524 -0.179388 
0.388063 0.401713 -0.440388 
0.0488762 0.369007 -0.201437 
-0.398568 -0.291863 -0.665932 
0.0690209 -0.0899746 0.0479376 
-0.0331896 -0.0399417 0.00670732 
0 0 -0.682722 
0.0458904 0.0507592 -0.0505749 
0.232626 -0.00904022 -0.634749 
0 0 -0.679554 
-0.0257915 0.00143578 -0.0450195 
0 0 -0.687083 
0 0 -0.68356 
0.181276 -0.0990443 -0.00770788 
-0.202778 -0.146087 -0.408388 
-0.0731652 0.0666616 -0.27348 
0 0 -0.684579 
0 0 -0.688018 
-0.131453 -0.0866221 -0.18515 
-0.391158 0.020473 -0.101021 
0.0398914 0.0244138 -0.0165389 
0.146428 -0.38276 -0.694087 
-0.0132636 0.0078688 -0.0173818 
0.136808 -0.114056 -0.372965 
0.152229 -0.000562791 -0.0605053 
-0.17279 0.0647213 -0.505909 
0.618192 0.442177 -0.920295 
0.128264 0.365021 -1.53657 
-0.281166 0.657593 -0.998594 
0.00570048 -0.0481552 -0.0719645 
-0.0182965 -0.0170847 0.00188263 
0 0 -0.756055 
-0.0928106 -0.0515615 -0.0995119 
0.244761 -0.00515832 -0.273569 
0 0 -0.752865 
0.309385 0.00024574 -0.570703 
0 0 -0.760297 
0 0 -0.756889 
0.823407 -0.0810881 -0.269342 
-0.00874109 -0.155972 -0.692348 
-0.269602 0.183277 -0.850187 
0 0 -0.757989 
0 0 -0.761163 
-0.00119512 -0.0112747 -0.293942 