# vtk DataFile Version 2.0
Generated by NetDEM
ASCII 
DATASET POLYDATA
POINTS 325 double
-0.416839 -0.405418 -0.464172 
-0.403333 -0.203333 -0.472458 
-0.408413 -0.00759814 -0.462905 
-0.449983 0.152107 -0.450007 
-0.402763 0.397237 -0.472454 
-0.265147 -0.431054 -0.459034 
-0.203538 -0.203538 -0.472454 
-0.203218 -0.00321788 -0.47246 
-0.171223 0.202363 -0.461314 
-0.246887 0.369117 -0.465047 
-0.0419593 -0.39798 -0.457245 
-0.00366947 -0.203669 -0.472455 
-0.00360232 -0.00360232 -0.472454 
0.0311775 0.188152 -0.4534 
-0.0418743 0.396565 -0.463929 
0.191674 -0.398252 -0.46441 
0.171557 -0.208072 -0.462936 
0.174034 -0.00946642 -0.461991 
0.159355 0.210264 -0.465044 
0.315378 0.415712 -0.39976 
0.399442 -0.400821 -0.450037 
0.406849 -0.296684 -0.450007 
0.359419 -0.0201093 -0.450008 
0.385593 0.0906383 -0.45001 
0.370245 0.438518 -0.465085 
-0.403619 -0.399446 -0.391268 
-0.403333 -0.203333 -0.394723 
-0.399778 -0.0083327 -0.387458 
-0.449611 0.175743 -0.298085 
-0.402763 0.397237 -0.394713 
-0.306073 -0.409013 -0.390137 
-0.203538 -0.203538 -0.394715 
-0.203218 -0.00321788 -0.394727 
-0.301665 0.160801 -0.465044 
-0.157519 0.41908 -0.446531 
-0.0608311 -0.399629 -0.382932 
-0.00366947 -0.203669 -0.394717 
-0.00360232 -0.00360232 -0.394716 
0.0059808 0.256891 -0.446172 
0.0481301 0.346823 -0.441466 
0.195354 -0.397064 -0.393024 
0.171522 -0.186155 -0.386541 
0.188162 -0.0101922 -0.383689 
0.197471 0.112209 -0.455757 
0.306203 0.424798 -0.280884 
0.397142 -0.450012 -0.363011 
0.400835 -0.349713 -0.364124 
0.322269 -0.156984 -0.450007 
0.449975 0.131414 -0.38478 
0.422624 0.347378 -0.453794 
-0.404035 -0.403387 -0.320359 
-0.403333 -0.203333 -0.316995 
-0.367274 0.00524438 -0.313218 
-0.192709 0.298827 -0.36399 
-0.402763 0.397237 -0.31698 
-0.180657 -0.365599 -0.454269 
-0.203538 -0.203538 -0.316986 
-0.203218 -0.00321788 -0.317003 
-0.176746 0.191433 -0.38101 
-0.21423 0.453782 -0.389311 
0.0267692 -0.430051 -0.346295 
-0.00366947 -0.203669 -0.316988 
-0.00360232 -0.00360232 -0.316987 
-0.0385211 0.255143 -0.365823 
0.233156 0.352612 -0.456973 
0.18762 -0.40004 -0.319533 
0.118447 -0.135866 -0.332668 
0.189632 0.00763505 -0.31073 
0.274714 0.0662832 -0.443471 
0.0707348 0.244948 -0.352777 
0.375439 -0.426567 -0.26824 
0.402357 -0.204013 -0.411782 
0.391103 -0.0804679 -0.376833 
0.448872 0.233898 -0.361603 
0.439274 0.260797 -0.456774 
-0.418906 -0.409723 -0.249735 
-0.403333 -0.203333 -0.239265 
-0.353514 0.0200165 -0.239418 
-0.219389 0.216087 -0.301187 
-0.402763 0.397237 -0.239245 
-0.149314 -0.427642 -0.377532 
-0.203538 -0.203538 -0.239256 
-0.203218 -0.00321788 -0.239278 
-0.10096 0.171672 -0.389196 
-0.282883 0.443601 -0.327309 
0.0975557 -0.43826 -0.291404 
-0.00366947 -0.203669 -0.239258 
-0.00360232 -0.00360232 -0.239257 
0.0157481 0.122368 -0.374251 
0.0382268 0.449347 -0.440851 
0.217757 -0.400636 -0.233102 
0.177374 -0.227952 -0.302721 
0.191847 0.00792915 -0.237737 
0.25414 0.174905 -0.426536 
0.14226 0.41075 -0.413957 
0.384707 -0.323237 -0.268818 
0.450007 -0.101255 -0.298727 
0.40838 0.166618 -0.299697 
0.320106 0.320252 -0.370708 
0.421633 0.373908 -0.355821 
-0.420903 -0.412388 -0.16249 
-0.403333 -0.203333 -0.161498 
-0.380581 0.00224681 -0.161147 
-0.417162 0.179386 -0.188703 
-0.402763 0.397237 -0.161474 
-0.242204 -0.400315 -0.332552 
-0.203538 -0.203538 -0.161489 
-0.203218 -0.00321788 -0.161513 
-0.142306 0.147159 -0.288676 
-0.289702 0.350829 -0.328763 
0.0362259 -0.37544 -0.272584 
-0.00366947 -0.203669 -0.161491 
-0.00360232 -0.00360232 -0.16149 
-0.0302866 0.212691 -0.297548 
-0.102081 0.444857 -0.369283 
0.210847 -0.402492 -0.162525 
0.238423 -0.303943 -0.242945 
0.18408 0.00370641 -0.165486 
0.211824 0.21195 -0.358406 
0.366883 0.449639 -0.191762 
0.376608 -0.398747 -0.172185 
0.449589 -0.215834 -0.323431 
0.416204 0.032598 -0.374553 
0.330379 0.241022 -0.310756 
0.399073 0.454156 -0.332871 
-0.418958 -0.406383 -0.0877844 
-0.403333 -0.203333 -0.0836202 
-0.446416 -0.013724 -0.121578 
-0.235353 0.205552 -0.164231 
-0.402763 0.397237 -0.0835944 
-0.161387 -0.413925 -0.280342 
-0.203538 -0.203538 -0.0836121 
-0.203218 -0.00321788 -0.0836344 
-0.105091 0.183494 -0.217639 
-0.195806 0.35266 -0.281949 
-0.056058 -0.358383 -0.295004 
-0.00366947 -0.203669 -0.0836141 
-0.00360232 -0.00360232 -0.0836131 
0.0132876 0.204719 -0.233485 
-0.111101 0.352951 -0.348313 
0.209915 -0.399645 -0.0830294 
0.212668 -0.240464 -0.177087 
0.181062 -0.000817542 -0.0873455 
0.198386 0.289173 -0.28419 
0.177366 0.384811 -0.298673 
0.400996 -0.447892 -0.0885591 
0.394502 -0.159592 -0.239431 
0.350898 -0.0543042 -0.260685 
0.449901 0.077591 -0.251266 
0.429029 0.410732 -0.261503 
-0.413256 -0.403782 -0.0109398 
-0.403333 -0.203333 -0.00553299 
-0.439313 -0.0212555 -0.0157625 
-0.237349 0.281253 -0.0708374 
-0.402763 0.397237 -0.0055077 
-0.124284 -0.397086 -0.191503 
-0.203538 -0.203538 -0.00552639 
-0.203218 -0.00321788 -0.00554487 
-0.130952 0.251608 -0.154556 
-0.208277 0.402602 -0.228857 
-0.0281509 -0.388663 -0.196502 
-0.00366947 -0.203669 -0.00552833 
-0.00360232 -0.00360232 -0.00552739 
0.0252111 0.192705 -0.163432 
-0.0440003 0.347902 -0.285823 
0.173261 -0.415992 -0.0227772 
0.188101 -0.192638 -0.117512 
0.188001 -0.00342647 -0.00865371 
0.20207 0.180939 -0.279163 
0.0527746 0.428153 -0.353233 
0.397072 -0.251543 -0.200216 
0.389383 -0.0998389 -0.159452 
0.361062 0.0374651 -0.221271 
0.399607 0.323921 -0.232975 
0.444028 0.38526 -0.164281 
-0.406681 -0.406413 0.0666187 
-0.403333 -0.203333 0.0728507 
-0.412041 -0.00435508 0.0539695 
-0.449996 0.179471 -0.0864483 
-0.402763 0.397237 0.072875 
-0.232618 -0.397415 -0.186977 
-0.203538 -0.203538 0.072855 
-0.203218 -0.00321788 0.0728408 
-0.13565 0.195111 -0.0643008 
-0.176285 0.420339 -0.148592 
0.0261572 -0.421408 -0.137953 
-0.00366947 -0.203669 0.0728533 
-0.00360232 -0.00360232 0.072854 
-0.0424074 0.224185 -0.094112 
-0.0526015 0.443216 -0.205502 
0.180624 -0.411439 0.0745815 
0.180656 -0.180653 -0.0295547 
0.195554 -0.00925215 0.0666352 
0.209262 0.147393 -0.20547 
0.257191 0.447414 -0.1967 
0.398121 -0.316262 -0.119887 
0.405656 -0.206435 -0.111093 
0.382718 0.048453 -0.121534 
0.35697 0.237226 -0.207515 
0.39862 0.436227 -0.104281 
-0.392001 -0.405056 0.145643 
-0.403333 -0.203333 0.151587 
-0.391004 0.00506187 0.127127 
-0.286432 0.137912 -0.100821 
-0.402763 0.397237 0.151611 
-0.216364 -0.406612 -0.10048 
-0.203538 -0.203538 0.151589 
-0.203218 -0.00321788 0.151579 
-0.159682 0.16856 0.0266127 
-0.211512 0.397803 -0.0838764 
-0.00116832 -0.400175 -0.0483195 
-0.00366947 -0.203669 0.151588 
-0.00360232 -0.00360232 0.151588 
-0.0121198 0.195846 -0.000624471 
-0.0177627 0.382257 -0.13123 
0.18953 -0.403943 0.14446 
0.199346 -0.190668 0.0576691 
0.196077 -0.0160101 0.139597 
0.184095 0.204822 -0.140135 
0.189104 0.37052 -0.194517 
0.398349 -0.421322 0.00784005 
0.397867 -0.26857 -0.0319602 
0.398775 -0.0435872 -0.0773608 
0.384697 0.137694 -0.199347 
0.399103 0.397788 -0.0372922 
-0.378158 -0.400583 0.216421 
-0.403333 -0.203333 0.469852 
-0.391717 0.0141133 0.202388 
-0.366482 0.232621 0.447925 
-0.402763 0.397237 0.469859 
-0.196119 -0.401059 0.0186942 
-0.203538 -0.203538 0.469851 
-0.203218 -0.00321788 0.469851 
-0.192637 0.192705 0.113955 
-0.205066 0.386509 0.00601062 
-0.003028 -0.402021 0.0486512 
-0.00366947 -0.203669 0.46985 
-0.00360232 -0.00360232 0.46985 
0.0181976 0.17278 0.0825056 
-0.0130793 0.385305 -0.0256384 
0.20719 -0.392637 0.218092 
0.20802 -0.272397 0.114551 
0.193521 -0.0121843 0.220723 
0.200889 0.205173 -0.0470368 
0.180577 0.373401 0.448564 
0.396335 -0.410703 0.320331 
0.396648 -0.21689 0.3411 
0.381421 -0.0740191 0.447685 
0.387589 0.257811 0.448982 
0.394567 0.398642 0.0487462 
-0.397328 -0.394542 0.286603 
-0.403333 -0.203333 0.230694 
-0.397202 -0.010678 0.287041 
-0.290319 0.220344 -0.00307757 
-0.402763 0.397237 0.230717 
-0.205712 -0.403042 0.123463 
-0.203538 -0.203538 0.230693 
-0.203218 -0.00321788 0.230688 
-0.20699 0.201037 0.20279 
-0.200885 0.400621 0.0850313 
-0.00298267 -0.398079 0.143478 
-0.00366947 -0.203669 0.230692 
-0.00360232 -0.00360232 0.230693 
-0.0174825 0.197307 0.157946 
-0.00362672 0.399417 0.059828 
0.206322 -0.391949 0.293251 
0.205779 -0.178813 0.270351 
0.190933 -0.00210352 0.294864 
0.194421 0.19091 0.0539925 
0.0767802 0.348373 -0.1698 
0.396052 -0.356122 0.0893413 
0.394807 -0.184805 0.0227364 
0.396104 0.0139331 0.00434192 
0.412612 0.208149 -0.129735 
0.398122 0.392658 0.153094 
-0.439969 -0.428506 0.337088 
-0.403333 -0.203333 0.31015 
-0.422087 -0.0207595 0.376269 
-0.449997 0.0820247 0.364289 
-0.402763 0.397237 0.310169 
-0.20156 -0.402885 0.244035 
-0.203538 -0.203538 0.310147 
-0.203218 -0.00321788 0.310145 
-0.205522 0.202886 0.321778 
-0.202518 0.39476 0.178434 
-0.00547371 -0.40768 0.235635 
-0.00366947 -0.203669 0.310146 
-0.00360232 -0.00360232 0.310147 
-0.00148377 0.196529 0.264522 
-0.00331557 0.396968 0.155922 
0.20386 -0.399198 0.373516 
0.211025 -0.225156 0.454553 
0.178293 0.00264008 0.367123 
0.197031 0.194072 0.148324 
0.0893701 0.205799 0.18101 
0.396202 -0.301315 0.174999 
0.396872 -0.215647 0.117865 
0.386154 -0.0851246 0.0259538 
0.449929 0.143607 0.293964 
0.397248 0.39723 0.256807 
-0.428016 -0.390844 0.429608 
-0.403333 -0.203333 0.389896 
-0.395177 0.00844905 0.462751 
-0.417954 0.181957 0.327107 
-0.402763 0.397237 0.389911 
-0.203099 -0.403099 0.355915 
-0.203538 -0.203538 0.389894 
-0.203218 -0.00321788 0.389894 
-0.204721 0.192976 0.432558 
-0.203347 0.396653 0.355667 
-0.00292062 -0.402921 0.356093 
-0.00366947 -0.203669 0.389893 
-0.00360232 -0.00360232 0.389894 
-0.00159366 0.197731 0.373372 
-0.00266816 0.397332 0.356346 
0.178045 -0.404169 0.4495 
0.134628 -0.188789 0.359091 
0.19352 -0.00596664 0.453232 
0.197198 0.197198 0.356212 
0.230623 0.445385 0.355549 
0.39691 -0.399646 0.439843 
0.396591 -0.182984 0.447053 
0.373536 0.0159618 0.322264 
0.39598 0.19246 0.366067 
0.396693 0.396436 0.365365 
VERTICES 325 650
1 0
1 1
1 2
1 3
1 4
1 5
1 6
1 7
1 8
1 9
1 10
1 11
1 12
1 13
1 14
1 15
1 16
1 17
1 18
1 19
1 20
1 21
1 22
1 23
1 24
1 25
1 26
1 27
1 28
1 29
1 30
1 31
1 32
1 33
1 34
1 35
1 36
1 37
1 38
1 39
1 40
1 41
1 42
1 43
1 44
1 45
1 46
1 47
1 48
1 49
1 50
1 51
1 52
1 53
1 54
1 55
1 56
1 57
1 58
1 59
1 60
1 61
1 62
1 63
1 64
1 65
1 66
1 67
1 68
1 69
1 70
1 71
1 72
1 73
1 74
1 75
1 76
1 77
1 78
1 79
1 80
1 81
1 82
1 83
1 84
1 85
1 86
1 87
1 88
1 89
1 90
1 91
1 92
1 93
1 94
1 95
1 96
1 97
1 98
1 99
1 100
1 101
1 102
1 103
1 104
1 105
1 106
1 107
1 108
1 109
1 110
1 111
1 112
1 113
1 114
1 115
1 116
1 117
1 118
1 119
1 120
1 121
1 122
1 123
1 124
1 125
1 126
1 127
1 128
1 129
1 130
1 131
1 132
1 133
1 134
1 135
1 136
1 137
1 138
1 139
1 140
1 141
1 142
1 143
1 144
1 145
1 146
1 147
1 148
1 149
1 150
1 151
1 152
1 153
1 154
1 155
1 156
1 157
1 158
1 159
1 160
1 161
1 162
1 163
1 164
1 165
1 166
1 167
1 168
1 169
1 170
1 171
1 172
1 173
1 174
1 175
1 176
1 177
1 178
1 179
1 180
1 181
1 182
1 183
1 184
1 185
1 186
1 187
1 188
1 189
1 190
1 191
1 192
1 193
1 194
1 195
1 196
1 197
1 198
1 199
1 200
1 201
1 202
1 203
1 204
1 205
1 206
1 207
1 208
1 209
1 210
1 211
1 212
1 213
1 214
1 215
1 216
1 217
1 218
1 219
1 220
1 221
1 222
1 223
1 224
1 225
1 226
1 227
1 228
1 229
1 230
1 231
1 232
1 233
1 234
1 235
1 236
1 237
1 238
1 239
1 240
1 241
1 242
1 243
1 244
1 245
1 246
1 247
1 248
1 249
1 250
1 251
1 252
1 253
1 254
1 255
1 256
1 257
1 258
1 259
1 260
1 261
1 262
1 263
1 264
1 265
1 266
1 267
1 268
1 269
1 270
1 271
1 272
1 273
1 274
1 275
1 276
1 277
1 278
1 279
1 280
1 281
1 282
1 283
1 284
1 285
1 286
1 287
1 288
1 289
1 290
1 291
1 292
1 293
1 294
1 295
1 296
1 297
1 298
1 299
1 300
1 301
1 302
1 303
1 304
1 305
1 306
1 307
1 308
1 309
1 310
1 311
1 312
1 313
1 314
1 315
1 316
1 317
1 318
1 319
1 320
1 321
1 322
1 323
1 324
POINT_DATA 325
SCALARS id int 1
LOOKUP_TABLE default
0
1
2
3
4
5
6
7
8
9
10
11
12
13
14
15
16
17
18
19
20
21
22
23
24
25
26
27
28
29
30
31
32
33
34
35
36
37
38
39
40
41
42
43
44
45
46
47
48
49
50
51
52
53
54
55
56
57
58
59
60
61
62
63
64
65
66
67
68
69
70
71
72
73
74
75
76
77
78
79
80
81
82
83
84
85
86
87
88
89
90
91
92
93
94
95
96
97
98
99
100
101
102
103
104
105
106
107
108
109
110
111
112
113
114
115
116
117
118
119
120
121
122
123
124
125
126
127
128
129
130
131
132
133
134
135
136
137
138
139
140
141
142
143
144
145
146
147
148
149
150
151
152
153
154
155
156
157
158
159
160
161
162
163
164
165
166
167
168
169
170
171
172
173
174
175
176
177
178
179
180
181
182
183
184
185
186
187
188
189
190
191
192
193
194
195
196
197
198
199
200
201
202
203
204
205
206
207
208
209
210
211
212
213
214
215
216
217
218
219
220
221
222
223
224
225
226
227
228
229
230
231
232
233
234
235
236
237
238
239
240
241
242
243
244
245
246
247
248
249
250
251
252
253
254
255
256
257
258
259
260
261
262
263
264
265
266
267
268
269
270
271
272
273
274
275
276
277
278
279
280
281
282
283
284
285
286
287
288
289
290
291
292
293
294
295
296
297
298
299
300
301
302
303
304
305
306
307
308
309
310
311
312
313
314
315
316
317
318
319
320
321
322
323
324
SCALARS type int 1
LOOKUP_TABLE default
0
0
0
0
0
0
0
0
0
0
0
0
0
0
0
0
0
0
0
0
0
0
0
0
0
0
0
0
0
0
0
0
0
0
0
0
0
0
0
0
0
0
0
0
0
0
0
0
0
0
0
0
0
0
0
0
0
0
0
0
0
0
0
0
0
0
0
0
0
0
0
0
0
0
0
0
0
0
0
0
0
0
0
0
0
0
0
0
0
0
0
0
0
0
0
0
0
0
0
0
0
0
0
0
0
0
0
0
0
0
0
0
0
0
0
0
0
0
0
0
0
0
0
0
0
0
0
0
0
0
0
0
0
0
0
0
0
0
0
0
0
0
0
0
0
0
0
0
0
0
0
0
0
0
0
0
0
0
0
0
0
0
0
0
0
0
0
0
0
0
0
0
0
0
0
0
0
0
0
0
0
0
0
0
0
0
0
0
0
0
0
0
0
0
0
0
0
0
0
0
0
0
0
0
0
0
0
0
0
0
0
0
0
0
0
0
0
0
0
0
0
0
0
0
0
0
0
0
0
0
0
0
0
0
0
0
0
0
0
0
0
0
0
0
0
0
0
0
0
0
0
0
0
0
0
0
0
0
0
0
0
0
0
0
0
0
0
0
0
0
0
0
0
0
0
0
0
0
0
0
0
0
0
0
0
0
0
0
0
0
0
0
0
0
0
0
0
0
0
0
0
0
0
0
0
0
0
0
0
0
0
0
0
0
0
0
0
0
0
0
0
0
0
0
0
SCALARS damp_viscous double 1
LOOKUP_TABLE default
0
0
0
0
0
0
0
0
0
0
0
0
0
0
0
0
0
0
0
0
0
0
0
0
0
0
0
0
0
0
0
0
0
0
0
0
0
0
0
0
0
0
0
0
0
0
0
0
0
0
0
0
0
0
0
0
0
0
0
0
0
0
0
0
0
0
0
0
0
0
0
0
0
0
0
0
0
0
0
0
0
0
0
0
0
0
0
0
0
0
0
0
0
0
0
0
0
0
0
0
0
0
0
0
0
0
0
0
0
0
0
0
0
0
0
0
0
0
0
0
0
0
0
0
0
0
0
0
0
0
0
0
0
0
0
0
0
0
0
0
0
0
0
0
0
0
0
0
0
0
0
0
0
0
0
0
0
0
0
0
0
0
0
0
0
0
0
0
0
0
0
0
0
0
0
0
0
0
0
0
0
0
0
0
0
0
0
0
0
0
0
0
0
0
0
0
0
0
0
0
0
0
0
0
0
0
0
0
0
0
0
0
0
0
0
0
0
0
0
0
0
0
0
0
0
0
0
0
0
0
0
0
0
0
0
0
0
0
0
0
0
0
0
0
0
0
0
0
0
0
0
0
0
0
0
0
0
0
0
0
0
0
0
0
0
0
0
0
0
0
0
0
0
0
0
0
0
0
0
0
0
0
0
0
0
0
0
0
0
0
0
0
0
0
0
0
0
0
0
0
0
0
0
0
0
0
0
0
0
0
0
0
0
0
0
0
0
0
0
0
0
0
0
0
0
SCALARS damp_numerical double 1
LOOKUP_TABLE default
0.5
0.5
0.5
0.5
0.5
0.5
0.5
0.5
0.5
0.5
0.5
0.5
0.5
0.5
0.5
0.5
0.5
0.5
0.5
0.5
0.5
0.5
0.5
0.5
0.5
0.5
0.5
0.5
0.5
0.5
0.5
0.5
0.5
0.5
0.5
0.5
0.5
0.5
0.5
0.5
0.5
0.5
0.5
0.5
0.5
0.5
0.5
0.5
0.5
0.5
0.5
0.5
0.5
0.5
0.5
0.5
0.5
0.5
0.5
0.5
0.5
0.5
0.5
0.5
0.5
0.5
0.5
0.5
0.5
0.5
0.5
0.5
0.5
0.5
0.5
0.5
0.5
0.5
0.5
0.5
0.5
0.5
0.5
0.5
0.5
0.5
0.5
0.5
0.5
0.5
0.5
0.5
0.5
0.5
0.5
0.5
0.5
0.5
0.5
0.5
0.5
0.5
0.5
0.5
0.5
0.5
0.5
0.5
0.5
0.5
0.5
0.5
0.5
0.5
0.5
0.5
0.5
0.5
0.5
0.5
0.5
0.5
0.5
0.5
0.5
0.5
0.5
0.5
0.5
0.5
0.5
0.5
0.5
0.5
0.5
0.5
0.5
0.5
0.5
0.5
0.5
0.5
0.5
0.5
0.5
0.5
0.5
0.5
0.5
0.5
0.5
0.5
0.5
0.5
0.5
0.5
0.5
0.5
0.5
0.5
0.5
0.5
0.5
0.5
0.5
0.5
0.5
0.5
0.5
0.5
0.5
0.5
0.5
0.5
0.5
0.5
0.5
0.5
0.5
0.5
0.5
0.5
0.5
0.5
0.5
0.5
0.5
0.5
0.5
0.5
0.5
0.5
0.5
0.5
0.5
0.5
0.5
0.5
0.5
0.5
0.5
0.5
0.5
0.5
0.5
0.5
0.5
0.5
0.5
0.5
0.5
0.5
0.5
0.5
0.5
0.5
0.5
0.5
0.5
0.5
0.5
0.5
0.5
0.5
0.5
0.5
0.5
0.5
0.5
0.5
0.5
0.5
0.5
0.5
0.5
0.5
0.5
0.5
0.5
0.5
0.5
0.5
0.5
0.5
0.5
0.5
0.5
0.5
0.5
0.5
0.5
0.5
0.5
0.5
0.5
0.5
0.5
0.5
0.5
0.5
0.5
0.5
0.5
0.5
0.5
0.5
0.5
0.5
0.5
0.5
0.5
0.5
0.5
0.5
0.5
0.5
0.5
0.5
0.5
0.5
0.5
0.5
0.5
0.5
0.5
0.5
0.5
0.5
0.5
0.5
0.5
0.5
0.5
0.5
0.5
0.5
0.5
0.5
0.5
0.5
0.5
0.5
0.5
0.5
0.5
0.5
0.5
0.5
0.5
0.5
0.5
0.5
0.5
0.5
0.5
0.5
0.5
0.5
0.5
0.5
0.5
0.5
0.5
0.5
0.5
SCALARS quat double 4
LOOKUP_TABLE default
0.980218 0.08515 -0.0194198 0.177611 
0.422936 0.19358 0.881935 0.076436 
0.99692 0.0674052 -0.0378492 -0.0132378 
-0.372751 -0.0886209 -0.840302 -0.383532 
0.218235 0.323535 0.831742 0.394847 
0.817088 -0.230118 -0.153482 0.505823 
0.259029 0.245797 0.696789 0.622072 
0.947128 0.0660144 0.273627 0.154011 
0.0192351 0.907319 0.417873 0.0422409 
0.294256 0.132457 0.0573151 0.944766 
0.911584 -0.102135 0.0427898 0.39592 
0.895604 0.01201 0.325206 0.3033 
0.115508 0.577388 0.641376 0.491851 
0.623552 0.709734 0.314946 -0.0909405 
0.791529 0.0727534 -0.0596684 0.603845 
0.997481 0.0497781 -0.0502667 -0.00518002 
0.659596 0.0675381 0.018686 0.748347 
0.97488 0.0818641 0.000525724 0.207141 
0.968733 0.114448 -0.0879201 0.201814 
-0.858441 0.283981 0.414462 -0.103223 
0.999386 -0.0184018 0.0273545 -0.0119009 
-0.13544 0.503883 -0.559835 0.643694 
0.886097 0.0917709 -0.388273 0.235911 
0.594221 0.763386 -0.234898 -0.0946916 
0.983928 0.103031 -0.0980973 0.107919 
0.983082 0.108464 -0.0726105 0.128507 
0.422936 0.19358 0.881935 0.076436 
0.996495 -0.00328161 -0.0570871 0.0610625 
0.547504 -0.193244 -0.777978 0.240098 
0.218235 0.323535 0.831742 0.394847 
0.805986 0.122113 0.503173 0.286866 
0.259029 0.245797 0.696789 0.622072 
0.947128 0.0660144 0.273627 0.154011 
0.315097 0.133686 0.0543692 0.938022 
0.457701 0.724928 0.375293 -0.352341 
0.605201 0.18786 0.0248184 0.773191 
0.895604 0.01201 0.325206 0.3033 
0.115508 0.577388 0.641376 0.491851 
0.720103 -0.578104 -0.368961 0.105428 
0.204512 0.817706 0.309386 -0.440242 
0.964715 0.0833916 -0.159324 0.192322 
0.779408 -0.0037653 -0.0214833 0.626136 
0.980593 0.0538498 0.0670898 0.176169 
0.0147496 0.812553 0.562737 -0.15122 
0.862459 -0.013543 -0.505672 0.0166443 
0.867682 0.495298 -0.0403701 0.0133092 
0.2164 -0.443623 0.616468 -0.613463 
-0.611575 0.636209 -0.470334 -0.00054518 
0.37608 0.81398 -0.344299 0.278314 
-0.780428 0.609282 0.0717315 -0.120676 
0.964718 0.160091 -0.208982 0.00409085 
0.422936 0.19358 0.881935 0.076436 
0.994809 -0.0229209 -0.060882 0.078248 
0.852978 -0.165483 -0.175385 -0.462909 
0.218235 0.323535 0.831742 0.394847 
-0.525684 0.349515 0.488092 -0.602712 
0.259029 0.245797 0.696789 0.622072 
0.947128 0.0660144 0.273627 0.154011 
-0.458077 0.305507 0.188597 -0.81318 
0.294672 -0.574577 -0.115482 0.754781 
0.0655512 0.736667 0.644669 -0.193462 
0.895604 0.01201 0.325206 0.3033 
0.115508 0.577388 0.641376 0.491851 
-0.112178 0.55334 0.811076 0.152927 
0.0110346 0.378654 0.907748 -0.180257 
0.941396 0.174109 -0.270416 0.101657 
0.662302 -0.0842448 -0.125951 0.733754 
0.991048 0.0440616 0.024886 0.123543 
0.888778 -0.0362523 0.426706 -0.163344 
-0.858944 -0.510445 -0.0249463 -0.0322295 
0.687997 -0.675355 -0.250074 0.0895476 
-0.324381 -0.825827 0.431986 -0.161785 
-0.0634321 0.250611 -0.835329 -0.485177 
-0.63241 0.714275 -0.286444 -0.0884263 
0.947761 -0.281102 -0.0198255 -0.149456 
0.935073 0.161964 -0.311862 0.0463557 
0.422936 0.19358 0.881935 0.076436 
0.977376 0.0245482 -0.204209 0.0493267 
0.941861 0.118678 0.25418 -0.184951 
0.218235 0.323535 0.831742 0.394847 
0.82319 0.405239 -0.264283 -0.297144 
0.259029 0.245797 0.696789 0.622072 
0.947128 0.0660144 0.273627 0.154011 
-0.084916 0.824319 -0.0353692 0.558602 
0.0627687 0.532913 0.15093 0.830231 
0.897226 -0.156336 0.147392 0.385773 
0.895604 0.01201 0.325206 0.3033 
0.115508 0.577388 0.641376 0.491851 
0.912683 0.377075 -0.0891218 -0.129926 
0.292198 -0.874407 -0.0261891 0.386453 
0.97401 0.141323 -0.00364568 -0.17697 
-0.129215 0.976863 -0.116574 -0.124312 
0.963426 0.0741542 -0.0221733 0.256553 
0.954057 -0.0898793 0.264122 0.109258 
0.828833 0.0649862 0.553896 -0.0448552 
0.66189 -0.664349 -0.00404816 -0.347169 
0.463862 -0.15004 0.485052 0.725978 
0.595074 0.23639 -0.427352 0.638262 
-0.298267 0.781118 -0.313799 -0.449912 
0.970815 0.218756 -0.028788 -0.0939945 
0.984211 0.11203 -0.0927164 0.100903 
0.422936 0.19358 0.881935 0.076436 
0.741495 0.286651 -0.601187 -0.0811892 
0.0201463 -0.320023 -0.941711 0.101782 
0.218235 0.323535 0.831742 0.394847 
0.916563 -0.267732 0.183819 0.23333 
0.259029 0.245797 0.696789 0.622072 
0.947128 0.0660144 0.273627 0.154011 
0.516944 0.840672 0.0967057 -0.129177 
0.399528 0.719969 -0.515858 0.236458 
0.703809 -0.530721 -0.290737 0.372101 
0.895604 0.01201 0.325206 0.3033 
0.115508 0.577388 0.641376 0.491851 
0.956694 0.0469986 0.251363 -0.139084 
0.484135 0.0474647 -0.51153 0.708306 
0.97451 0.159348 -0.157909 -0.0015442 
0.775399 0.101412 -0.141936 0.606898 
0.935237 0.112126 -0.0774413 0.326744 
0.924087 -0.0366366 -0.0841865 0.37099 
0.474782 0.392057 -0.646058 0.45109 
0.313139 0.913176 0.112507 -0.235363 
-0.0142123 0.109315 -0.510042 0.853057 
-0.631029 0.0510297 -0.585949 -0.505828 
-0.931322 -0.299303 -0.1508 0.142534 
0.846542 -0.516416 0.00585762 0.129026 
0.976984 0.136796 -0.127907 0.102124 
0.422936 0.19358 0.881935 0.076436 
0.740831 0.280594 -0.605578 -0.0755761 
0.024019 -0.332904 0.94133 -0.0499643 
0.218235 0.323535 0.831742 0.394847 
-0.284808 0.368965 0.865262 0.184583 
0.259029 0.245797 0.696789 0.622072 
0.947128 0.0660144 0.273627 0.154011 
0.104042 0.907978 0.395117 -0.0929153 
0.354193 0.609932 0.645202 -0.293674 
0.632588 -0.278185 -0.349384 0.632753 
0.895604 0.01201 0.325206 0.3033 
0.115508 0.577388 0.641376 0.491851 
-0.0769946 0.813059 0.539685 -0.204319 
0.110646 0.921334 0.306298 -0.212327 
0.919062 0.212831 -0.328002 0.0494331 
0.793452 -0.163108 0.0422941 0.584842 
0.95317 0.12546 -0.0307413 0.273461 
0.993392 0.0715177 0.0896329 0.00486988 
-0.378661 -0.0969921 -0.819278 -0.419515 
0.719169 -0.693303 0.0445469 -0.0119173 
0.648666 -0.0281459 0.730956 0.210102 
0.677241 -0.500153 0.322773 0.432446 
-0.0550212 -0.900896 0.16005 -0.399679 
-0.284974 0.957205 0.0126922 -0.0488616 
0.97184 0.167793 -0.123642 0.10993 
0.422936 0.19358 0.881935 0.076436 
0.950389 -0.021486 0.263317 -0.164206 
-0.959921 -0.0721053 -0.239804 0.125883 
0.218235 0.323535 0.831742 0.394847 
0.627321 -0.378019 -0.600997 0.319957 
0.259029 0.245797 0.696789 0.622072 
0.947128 0.0660144 0.273627 0.154011 
0.765912 0.28113 -0.128132 0.56385 
0.218918 -0.207427 0.197062 0.932853 
0.0766129 0.847842 0.499874 0.159438 
0.895604 0.01201 0.325206 0.3033 
0.115508 0.577388 0.641376 0.491851 
0.990794 0.103637 -0.0600221 -0.0631185 
0.541548 -0.766722 0.342833 -0.0364528 
0.858682 0.236556 -0.450454 0.0616273 
0.760586 0.0868414 -0.0614626 0.640461 
0.966097 0.12522 0.0336732 0.223254 
-0.154975 0.983719 0.0525455 -0.0742907 
-0.344122 -0.618095 -0.270212 -0.653089 
-0.129018 -0.988754 -0.0656717 0.0375185 
0.212951 0.44455 0.517052 0.699774 
0.895267 -0.19444 0.400853 -0.00249576 
-0.204527 -0.85668 0.214515 0.422199 
0.87293 -0.332016 -0.334099 -0.127028 
0.975239 0.187514 -0.0867495 0.078884 
0.422936 0.19358 0.881935 0.076436 
0.998022 0.054855 -0.0305221 0.00346482 
-0.480631 0.363953 0.615805 -0.507264 
0.218235 0.323535 0.831742 0.394847 
0.915713 -0.0324331 0.152523 0.370344 
0.259029 0.245797 0.696789 0.622072 
0.947128 0.0660144 0.273627 0.154011 
-0.20134 0.913947 -0.0592843 0.347346 
-0.0110998 0.891436 0.375556 0.253331 
0.980595 -0.0337422 0.116441 0.154069 
0.895604 0.01201 0.325206 0.3033 
0.115508 0.577388 0.641376 0.491851 
0.908666 0.403534 -0.010729 0.10664 
0.567794 0.790598 0.117689 0.196758 
0.993 0.0113615 0.0927643 -0.0722231 
0.623534 0.498717 -0.0841875 0.596153 
0.972386 0.134665 0.0298046 0.188264 
0.958334 -0.271749 -0.0498523 -0.0725546 
0.488224 -0.0620644 -0.773904 0.398571 
-0.825953 0.561603 -0.0287459 0.0397162 
-0.0284926 0.48706 -0.420986 0.764677 
0.402667 0.876468 0.0392419 0.261002 
-0.915578 0.221415 -0.334535 0.0279081 
0.0260787 0.928654 0.36968 0.0160925 
0.992975 0.116769 -0.012588 0.0143616 
0.422936 0.19358 0.881935 0.076436 
0.991629 0.0563118 -0.111134 0.0339166 
0.728615 -0.163092 0.642709 -0.171598 
0.218235 0.323535 0.831742 0.394847 
0.493086 0.0789987 0.832573 0.239682 
0.259029 0.245797 0.696789 0.622072 
0.947128 0.0660144 0.273627 0.154011 
0.263304 0.83905 0.167992 0.445472 
0.23963 -0.324203 -0.406518 0.819886 
0.904057 0.263898 0.185956 0.280107 
0.895604 0.01201 0.325206 0.3033 
0.115508 0.577388 0.641376 0.491851 
0.0715901 0.711958 0.652476 -0.24953 
0.249951 0.745288 -0.0200818 0.617792 
0.997197 0.0558118 -0.036304 0.0341346 
0.711818 0.329799 -0.0399051 0.618834 
0.983151 0.154545 -0.0268655 0.0938469 
0.970019 -0.0720289 0.178067 0.14889 
0.186022 0.236516 -0.949642 0.0873877 
0.754152 -0.654965 -0.0441617 -0.0180482 
0.494877 -0.193362 0.845994 -0.0447387 
0.804256 0.180531 0.174258 0.538716 
0.265524 -0.883364 0.375861 -0.0888437 
0.980143 0.184834 -0.054295 -0.0469827 
0.981541 0.0638017 -0.136981 0.11723 
0.422936 0.19358 0.881935 0.076436 
0.951823 0.111411 -0.284202 -0.0291693 
0.915007 0.190822 -0.0797835 0.346388 
0.218235 0.323535 0.831742 0.394847 
0.895633 -0.101363 0.318458 0.293517 
0.259029 0.245797 0.696789 0.622072 
0.947128 0.0660144 0.273627 0.154011 
0.422511 0.768779 0.216072 0.428691 
-0.0669002 0.782161 0.615465 0.0703649 
0.865233 0.277921 0.339252 0.24298 
0.895604 0.01201 0.325206 0.3033 
0.115508 0.577388 0.641376 0.491851 
0.962952 -0.00790767 -0.17495 0.205069 
0.908095 0.196567 0.21016 0.304232 
0.970889 0.0937683 -0.105164 0.193709 
-0.0238683 0.78242 -0.292534 0.549248 
0.991376 -0.0783618 0.0391734 0.0974597 
0.770756 0.467356 0.376734 0.213507 
0.837235 -0.0209163 0.413067 0.357736 
0.999671 -0.0254239 0.00342713 0.000136088 
0.489792 0.121872 0.721977 0.473287 
0.815952 -0.0881483 0.449136 0.35317 
0.931295 0.272913 0.14921 0.18959 
0.660854 0.684884 0.3069 -0.00437378 
0.8752 0.185167 -0.368318 0.253139 
0.422936 0.19358 0.881935 0.076436 
0.866405 0.357104 -0.34054 0.0765026 
0.225591 -0.188743 -0.93343 0.205411 
0.218235 0.323535 0.831742 0.394847 
0.747273 0.0578716 0.607355 0.263351 
0.259029 0.245797 0.696789 0.622072 
0.947128 0.0660144 0.273627 0.154011 
0.0881864 0.832243 0.426122 0.343533 
0.330473 0.149383 0.0186674 0.931732 
0.895445 0.267617 0.24134 0.26137 
0.895604 0.01201 0.325206 0.3033 
0.115508 0.577388 0.641376 0.491851 
0.709073 0.635536 0.304679 -0.021911 
0.798251 0.441096 0.0926155 0.399565 
0.952002 0.167173 -0.240811 0.0880631 
0.0237611 -0.726945 0.686268 0.00471204 
0.975977 -0.0370602 0.0195724 0.213805 
0.915996 0.262104 0.173943 0.248992 
0.636999 -0.100724 0.75619 -0.11074 
0.911051 -0.411868 0.0186988 -0.00134477 
0.469822 0.149167 0.693806 0.525023 
0.828312 0.0813466 0.229872 0.504421 
0.80614 -0.536817 0.215365 0.124834 
0.915218 0.356993 0.18607 0.0176272 
0.697648 0.412013 -0.585922 0.0150573 
0.422936 0.19358 0.881935 0.076436 
0.966792 -0.0991601 -0.2235 0.0743489 
0.780505 0.343183 -0.144337 -0.502199 
0.218235 0.323535 0.831742 0.394847 
0.811733 -0.0144061 0.509339 0.285405 
0.259029 0.245797 0.696789 0.622072 
0.947128 0.0660144 0.273627 0.154011 
-0.0823513 0.81226 0.39737 0.418986 
0.17639 0.523701 0.409134 0.726109 
0.869531 0.339973 0.250377 0.256213 
0.895604 0.01201 0.325206 0.3033 
0.115508 0.577388 0.641376 0.491851 
0.819276 0.474351 0.321483 0.0206562 
0.83156 0.3734 0.114497 0.394931 
0.941983 0.163261 -0.279649 0.0883779 
0.379636 0.922553 0.0290174 0.0626946 
0.918615 -0.0661675 -0.111402 0.373306 
0.866819 0.29909 0.291404 0.272494 
0.358443 -0.218798 0.906096 -0.0513467 
0.921738 0.387439 -0.0141233 0.00949757 
0.403375 0.305915 0.500767 0.702094 
0.691388 0.376374 -0.0622715 0.613553 
0.849848 0.395678 -0.317265 -0.143317 
0.815096 0.523849 0.2473 -0.00658886 
0.660158 0.468756 0.583598 -0.0622259 
0.422936 0.19358 0.881935 0.076436 
0.991545 0.109677 0.0488056 0.0492654 
0.92482 0.0284836 0.243121 0.291185 
0.218235 0.323535 0.831742 0.394847 
0.822268 0.00687642 0.488428 0.292003 
0.259029 0.245797 0.696789 0.622072 
0.947128 0.0660144 0.273627 0.154011 
0.154109 0.815494 0.460064 0.315533 
0.241786 0.448885 0.409847 0.756351 
0.907485 0.19221 0.316201 0.198854 
0.895604 0.01201 0.325206 0.3033 
0.115508 0.577388 0.641376 0.491851 
0.830051 0.489824 0.261593 0.0515423 
0.824488 0.388943 0.180706 0.369174 
0.969994 0.0428476 -0.222275 -0.0887152 
0.744982 -0.400312 -0.496553 -0.195416 
0.934119 0.304181 0.0331837 0.183831 
0.894099 0.242412 0.307197 0.217838 
0.863778 0.189752 0.0459859 0.464508 
0.999942 0.0107666 -0.000402976 0.000470786 
0.449635 0.229024 0.597185 0.623495 
0.624102 0.572595 -0.122928 0.517224 
0.906025 0.204914 0.199419 0.312026 
0.857727 0.472625 0.201735 0.0152357 
VECTORS vel double
0.0195329 0.00141163 0.0131832 
0 0 0.539633 
0.0140911 0.00223154 0.0301328 
0.00150517 -0.210973 7.96825e-07 
0 0 0.540565 
0.0939558 0.0329054 0.0350717 
0 0 0.537246 
0 0 0.537841 
0.0889229 -0.0873509 -0.075083 
0.00135769 0.000901734 -0.000572664 
0.0118174 -0.0732411 -0.00610916 
0 0 0.53753 
0 0 0.537335 
0.010665 -0.00177147 -0.00218167 
-0.0102618 -0.00404707 0.00688457 
-0.00597045 -0.0468622 0.12918 
-0.0145164 -0.0186203 -0.0144572 
-0.011799 -0.00253307 -0.0147666 
0.000101233 -2.71325e-05 -4.68105e-05 
-0.06598 0.116297 0.0176795 
0.0987166 0.0187618 0.0160231 
0.0154585 -0.0176959 -3.68729e-08 
-0.230234 0.140644 0.00941061 
-0.0452587 0.0925889 -2.04142e-05 
-0.0206479 0.0459033 0.0218366 
0.0290574 0.00698909 -0.0503261 
0 0 1.0349 
0.101277 0.0284374 0.0796444 
0.00329548 -0.0350526 -0.932541 
0 0 1.03646 
0.0792891 0.0204544 0.0278998 
0 0 1.0305 
0 0 1.03241 
-6.39441e-05 -9.68106e-05 -3.72761e-05 
-0.0014246 0.0217437 -0.0109713 
-0.0636087 -0.160875 -0.0694885 
0 0 1.03102 
0 0 1.03069 
-0.00516753 0.0107628 -0.0112911 
-0.0019849 -0.00437749 -0.00192396 
0.051479 -0.107371 0.288217 
-0.040589 -0.00174338 0.00737685 
-0.0196459 0.064891 0.241462 
-0.00552269 0.0214577 0.0580214 
-0.00140681 -0.0493484 -0.0269057 
0.0477238 0.0144257 0.0354524 
0.0255116 -0.000332192 0.023322 
-0.366371 -0.214936 2.30646e-13 
-0.00129543 0.384437 -0.279631 
0.142372 -0.129509 -0.0380719 
0.00173287 0.0223842 -0.112296 
0 0 1.47138 
0.23763 0.147624 0.0110383 
-0.144079 -0.114433 -0.912811 
0 0 1.4727 
-0.00243485 -0.128966 -0.000291327 
0 0 1.4662 
0 0 1.46982 
0.167789 -0.0450051 -0.0571164 
-0.0611211 -0.0109457 -0.0355532 