# vtk DataFile Version 2.0
Generated by NetDEM
ASCII 
DATASET POLYDATA
POINTS 125 double
-0.416254 -0.402691 -0.46135 
-0.403333 -0.203333 -0.450007 
-0.408203 -0.00402552 -0.462793 
-0.40295 0.19705 -0.450007 
-0.402763 0.397237 -0.450007 
-0.217992 -0.425784 -0.444492 
-0.203538 -0.203538 -0.450007 
-0.203218 -0.00321788 -0.450007 
-0.169417 0.202686 -0.4607 
-0.227759 0.385043 -0.451034 
-0.0225642 -0.405532 -0.449359 
-0.00366947 -0.203669 -0.450007 
-0.00360232 -0.00360232 -0.450007 
0.00112836 0.188312 -0.444608 
-0.0160486 0.399264 -0.448342 
0.192775 -0.398023 -0.462659 
0.173785 -0.209837 -0.463226 
0.175141 -0.00687598 -0.459903 
0.181065 0.204694 -0.449737 
0.196913 0.396913 -0.450007 
0.396713 -0.403287 -0.450007 
0.39661 -0.20339 -0.450007 
0.396488 -0.00351175 -0.450007 
0.396508 0.196508 -0.450007 
0.394192 0.393844 -0.442103 
-0.409675 -0.400168 -0.386553 
-0.403333 -0.203333 -0.348092 
-0.413685 -0.00415804 -0.389197 
-0.40295 0.19705 -0.34834 
-0.402763 0.397237 -0.348912 
-0.203876 -0.402209 -0.343622 
-0.203538 -0.203538 -0.348712 
-0.203218 -0.00321788 -0.348797 
-0.204685 0.191699 -0.385492 
-0.196618 0.387635 -0.355984 
-0.00533486 -0.398995 -0.362091 
-0.00366947 -0.203669 -0.348109 
-0.00360232 -0.00360232 -0.348339 
0.000889728 0.193544 -0.34265 
-0.0115947 0.400005 -0.364196 
0.19388 -0.400113 -0.387133 
0.187619 -0.206891 -0.381557 
0.18878 -0.00980577 -0.379128 
0.188501 0.188678 -0.36274 
0.196913 0.396913 -0.348846 
0.396713 -0.403287 -0.34825 
0.39661 -0.20339 -0.349293 
0.396488 -0.00351175 -0.348546 
0.396508 0.196508 -0.349161 
0.39747 0.393991 -0.338361 
-0.403633 -0.403633 -0.224956 
-0.403333 -0.203333 -0.224655 
-0.403998 -0.00399844 -0.225321 
-0.40295 0.19705 -0.224273 
-0.402763 0.397237 -0.224086 
-0.203073 -0.403087 -0.220328 
-0.203538 -0.203538 -0.224861 
-0.203218 -0.00321788 -0.224541 
-0.203937 0.196063 -0.22526 
-0.203347 0.396653 -0.22467 
-0.00292062 -0.402921 -0.224243 
-0.00366947 -0.203669 -0.224992 
-0.00360232 -0.00360232 -0.224925 
-0.00216913 0.197827 -0.222753 
-0.00266816 0.397332 -0.223991 
0.197698 -0.402302 -0.223625 
0.196222 -0.203778 -0.225101 
0.197391 -0.00260897 -0.223932 
0.197198 0.197198 -0.224125 
0.196913 0.396913 -0.22441 
0.396713 -0.403287 -0.22461 
0.39661 -0.20339 -0.224713 
0.396488 -0.00351175 -0.224835 
0.396508 0.196508 -0.224815 
0.396534 0.396534 -0.224789 
-0.403633 -0.403633 0.0682635 
-0.403333 -0.203333 0.0685641 
-0.403998 -0.00399844 0.0678982 
-0.40295 0.19705 0.0689462 
-0.402763 0.397237 0.0691334 
-0.203099 -0.403099 0.0687977 
-0.203538 -0.203538 0.0683584 
-0.203218 -0.00321788 0.0686788 
-0.203937 0.196063 0.0679593 
-0.203347 0.396653 0.0685497 
-0.00292062 -0.402921 0.068976 
-0.00366947 -0.203669 0.0682272 
-0.00360232 -0.00360232 0.0682943 
-0.00217008 0.19783 0.0697266 
-0.00266816 0.397332 0.0692285 
0.197698 -0.402302 0.0695945 
0.196222 -0.203778 0.0681184 
0.197391 -0.00260897 0.0692877 
0.197198 0.197198 0.0690944 
0.196913 0.396913 0.0688097 
0.396713 -0.403287 0.0686093 
0.39661 -0.20339 0.0685062 
0.396488 -0.00351175 0.0683849 
0.396508 0.196508 0.0684045 
0.396534 0.396534 0.0684302 
-0.403633 -0.403633 0.312433 
-0.403333 -0.203333 0.312734 
-0.403998 -0.00399844 0.312068 
-0.40295 0.19705 0.313116 
-0.402763 0.397237 0.313303 
-0.203099 -0.403099 0.312967 
-0.203538 -0.203538 0.312528 
-0.203218 -0.00321788 0.312848 
-0.203937 0.196063 0.312129 
-0.203347 0.396653 0.312719 
-0.00292062 -0.402921 0.313146 
-0.00366947 -0.203669 0.312397 
-0.00360232 -0.00360232 0.312464 
-0.00217008 0.19783 0.313896 
-0.00266816 0.397332 0.313398 
0.197698 -0.402302 0.313764 
0.196222 -0.203778 0.312288 
0.197391 -0.00260897 0.313457 
0.197198 0.197198 0.313264 
0.196913 0.396913 0.312979 
0.396713 -0.403287 0.312779 
0.39661 -0.20339 0.312676 
0.396488 -0.00351175 0.312554 
0.396508 0.196508 0.312574 
0.396534 0.396534 0.3126 
VERTICES 125 250
1 0
1 1
1 2
1 3
1 4
1 5
1 6
1 7
1 8
1 9
1 10
1 11
1 12
1 13
1 14
1 15
1 16
1 17
1 18
1 19
1 20
1 21
1 22
1 23
1 24
1 25
1 26
1 27
1 28
1 29
1 30
1 31
1 32
1 33
1 34
1 35
1 36
1 37
1 38
1 39
1 40
1 41
1 42
1 43
1 44
1 45
1 46
1 47
1 48
1 49
1 50
1 51
1 52
1 53
1 54
1 55
1 56
1 57
1 58
1 59
1 60
1 61
1 62
1 63
1 64
1 65
1 66
1 67
1 68
1 69
1 70
1 71
1 72
1 73
1 74
1 75
1 76
1 77
1 78
1 79
1 80
1 81
1 82
1 83
1 84
1 85
1 86
1 87
1 88
1 89
1 90
1 91
1 92
1 93
1 94
1 95
1 96
1 97
1 98
1 99
1 100
1 101
1 102
1 103
1 104
1 105
1 106
1 107
1 108
1 109
1 110
1 111
1 112
1 113
1 114
1 115
1 116
1 117
1 118
1 119
1 120
1 121
1 122
1 123
1 124
POINT_DATA 125
SCALARS id int 1
LOOKUP_TABLE default
0
1
2
3
4
5
6
7
8
9
10
11
12
13
14
15
16
17
18
19
20
21
22
23
24
25
26
27
28
29
30
31
32
33
34
35
36
37
38
39
40
41
42
43
44
45
46
47
48
49
50
51
52
53
54
55
56
57
58
59
60
61
62
63
64
65
66
67
68
69
70
71
72
73
74
75
76
77
78
79
80
81
82
83
84
85
86
87
88
89
90
91
92
93
94
95
96
97
98
99
100
101
102
103
104
105
106
107
108
109
110
111
112
113
114
115
116
117
118
119
120
121
122
123
124
SCALARS type int 1
LOOKUP_TABLE default
0
0
0
0
0
0
0
0
0
0
0
0
0
0
0
0
0
0
0
0
0
0
0
0
0
0
0
0
0
0
0
0
0
0
0
0
0
0
0
0
0
0
0
0
0
0
0
0
0
0
0
0
0
0
0
0
0
0
0
0
0
0
0
0
0
0
0
0
0
0
0
0
0
0
0
0
0
0
0
0
0
0
0
0
0
0
0
0
0
0
0
0
0
0
0
0
0
0
0
0
0
0
0
0
0
0
0
0
0
0
0
0
0
0
0
0
0
0
0
0
0
0
0
0
0
SCALARS damp_viscous double 1
LOOKUP_TABLE default
0
0
0
0
0
0
0
0
0
0
0
0
0
0
0
0
0
0
0
0
0
0
0
0
0
0
0
0
0
0
0
0
0
0
0
0
0
0
0
0
0
0
0
0
0
0
0
0
0
0
0
0
0
0
0
0
0
0
0
0
0
0
0
0
0
0
0
0
0
0
0
0
0
0
0
0
0
0
0
0
0
0
0
0
0
0
0
0
0
0
0
0
0
0
0
0
0
0
0
0
0
0
0
0
0
0
0
0
0
0
0
0
0
0
0
0
0
0
0
0
0
0
0
0
0
SCALARS damp_numerical double 1
LOOKUP_TABLE default
0.5
0.5
0.5
0.5
0.5
0.5
0.5
0.5
0.5
0.5
0.5
0.5
0.5
0.5
0.5
0.5
0.5
0.5
0.5
0.5
0.5
0.5
0.5
0.5
0.5
0.5
0.5
0.5
0.5
0.5
0.5
0.5
0.5
0.5
0.5
0.5
0.5
0.5
0.5
0.5
0.5
0.5
0.5
0.5
0.5
0.5
0.5
0.5
0.5
0.5
0.5
0.5
0.5
0.5
0.5
0.5
0.5
0.5
0.5
0.5
0.5
0.5
0.5
0.5
0.5
0.5
0.5
0.5
0.5
0.5
0.5
0.5
0.5
0.5
0.5
0.5
0.5
0.5
0.5
0.5
0.5
0.5
0.5
0.5
0.5
0.5
0.5
0.5
0.5
0.5
0.5
0.5
0.5
0.5
0.5
0.5
0.5
0.5
0.5
0.5
0.5
0.5
0.5
0.5
0.5
0.5
0.5
0.5
0.5
0.5
0.5
0.5
0.5
0.5
0.5
0.5
0.5
0.5
0.5
0.5
0.5
0.5
0.5
0.5
0.5
SCALARS quat double 4
LOOKUP_TABLE default
0.986258 0.0669819 -0.00319169 0.150992 
0.422936 0.19358 0.881935 0.076436 
0.999193 0.0159886 -0.0364325 -0.00558317 
0.933896 0.135683 0.0158348 0.330419 
0.218235 0.323535 0.831742 0.394847 
0.848965 0.0963466 0.314133 0.41388 
0.259029 0.245797 0.696789 0.622072 
0.947128 0.0660144 0.273627 0.154011 
0.0266413 0.914384 0.403942 0.00481489 
0.233307 0.235075 0.277791 0.901743 
0.905153 0.0906837 0.207426 0.359791 
0.895604 0.01201 0.325206 0.3033 
0.115508 0.577388 0.641376 0.491851 
0.769098 0.534725 0.309277 0.164029 
0.79193 0.234588 0.169746 0.537589 
0.997788 0.0313575 -0.033267 0.0482603 
0.674729 0.111448 0.0265785 0.729119 
0.973133 0.043427 0.0198764 0.225235 
0.952024 0.196929 0.162932 0.168292 
0.872998 0.106465 0.203002 0.430499 
1 0.000646178 0.000193913 0.000461524 
0.464545 0.197074 0.639242 0.580284 
0.80546 0.16019 0.208233 0.531236 
0.973067 0.0554567 0.156413 0.16 
0.846939 0.487476 0.200729 0.0690627 
0.957215 0.160375 -0.20735 0.122575 
0.422936 0.19358 0.881935 0.076436 
0.963404 0.0546614 -0.26214 0.0121446 
0.933896 0.135683 0.0158348 0.330419 
0.218235 0.323535 0.831742 0.394847 
0.753923 -0.0175741 0.612417 0.237143 
0.259029 0.245797 0.696789 0.622072 
0.947128 0.0660144 0.273627 0.154011 
-0.000480862 0.777513 0.306791 0.548956 
-0.0545479 0.688411 0.386293 0.611468 
0.857017 0.336165 0.257747 0.293398 
0.895604 0.01201 0.325206 0.3033 
0.115508 0.577388 0.641376 0.491851 
0.780552 0.379401 0.491381 -0.0730643 
0.706577 0.497945 -0.0613078 0.49904 
0.951887 0.183765 -0.237076 0.062737 
0.627887 0.492587 0.0189306 0.602293 
0.966938 0.117385 0.0329382 0.223979 
0.910754 0.203676 0.299188 0.198823 
0.872998 0.106465 0.203002 0.430499 
1 0.000646178 0.000193913 0.000461524 
0.464545 0.197074 0.639242 0.580284 
0.80546 0.16019 0.208233 0.531236 
0.973067 0.0554567 0.156413 0.16 
0.801131 0.442317 0.395127 -0.0801179 
0.987695 0.113077 0.0865597 0.064658 
0.422936 0.19358 0.881935 0.076436 
0.999938 0.00834925 0.00519597 0.00514693 
0.933896 0.135683 0.0158348 0.330419 
0.218235 0.323535 0.831742 0.394847 
0.818149 0.00870282 0.496167 0.290474 
0.259029 0.245797 0.696789 0.622072 
0.947128 0.0660144 0.273627 0.154011 
0.114949 0.809678 0.432343 0.379853 
0.241786 0.448885 0.409847 0.756351 
0.907485 0.19221 0.316201 0.198854 
0.895604 0.01201 0.325206 0.3033 
0.115508 0.577388 0.641376 0.491851 
0.83478 0.483917 0.257083 0.0536116 
0.824488 0.388943 0.180706 0.369174 
0.997984 0.0571643 0.0186911 0.0202818 
0.733928 0.293165 0.134605 0.597734 
0.94956 0.0531351 0.230499 0.205872 
0.894099 0.242412 0.307197 0.217838 
0.872998 0.106465 0.203002 0.430499 
1 0.000646178 0.000193913 0.000461524 
0.464545 0.197074 0.639242 0.580284 
0.80546 0.16019 0.208233 0.531236 
0.973067 0.0554567 0.156413 0.16 
0.85666 0.475253 0.200024 0.0160836 
0.987695 0.113077 0.0865597 0.064658 
0.422936 0.19358 0.881935 0.076436 
0.999938 0.00834925 0.00519597 0.00514693 
0.933896 0.135683 0.0158348 0.330419 
0.218235 0.323535 0.831742 0.394847 
0.822268 0.00687642 0.488428 0.292003 
0.259029 0.245797 0.696789 0.622072 
0.947128 0.0660144 0.273627 0.154011 
0.114949 0.809678 0.432343 0.379853 
0.241786 0.448885 0.409847 0.756351 
0.907485 0.19221 0.316201 0.198854 
0.895604 0.01201 0.325206 0.3033 
0.115508 0.577388 0.641376 0.491851 
0.835101 0.483927 0.255872 0.054317 
0.824488 0.388943 0.180706 0.369174 
0.997984 0.0571643 0.0186911 0.0202818 
0.733928 0.293165 0.134605 0.597734 
0.94956 0.0531351 0.230499 0.205872 
0.894099 0.242412 0.307197 0.217838 
0.872998 0.106465 0.203002 0.430499 
1 0.000646178 0.000193913 0.000461524 
0.464545 0.197074 0.639242 0.580284 
0.80546 0.16019 0.208233 0.531236 
0.973067 0.0554567 0.156413 0.16 
0.85666 0.475253 0.200024 0.0160836 
0.987695 0.113077 0.0865597 0.064658 
0.422936 0.19358 0.881935 0.076436 
0.999938 0.00834925 0.00519597 0.00514693 
0.933896 0.135683 0.0158348 0.330419 
0.218235 0.323535 0.831742 0.394847 
0.822268 0.00687642 0.488428 0.292003 
0.259029 0.245797 0.696789 0.622072 
0.947128 0.0660144 0.273627 0.154011 
0.114949 0.809678 0.432343 0.379853 
0.241786 0.448885 0.409847 0.756351 
0.907485 0.19221 0.316201 0.198854 
0.895604 0.01201 0.325206 0.3033 
0.115508 0.577388 0.641376 0.491851 
0.835101 0.483927 0.255872 0.054317 
0.824488 0.388943 0.180706 0.369174 
0.997984 0.0571643 0.0186911 0.0202818 
0.733928 0.293165 0.134605 0.597734 
0.94956 0.0531351 0.230499 0.205872 
0.894099 0.242412 0.307197 0.217838 
0.872998 0.106465 0.203002 0.430499 
1 0.000646178 0.000193913 0.000461524 
0.464545 0.197074 0.639242 0.580284 
0.80546 0.16019 0.208233 0.531236 
0.973067 0.0554567 0.156413 0.16 
0.85666 0.475253 0.200024 0.0160836 
VECTORS vel double
-0.0068906 -0.0519282 -0.022732 
0 0 -5.49784e-14 
-0.0565212 0.0610373 -0.0355733 
0 0 -1.02582e-13 
0 0 -5.49783e-14 
-0.145271 -0.106802 -0.0762974 
0 0 -1.02582e-13 
0 0 -1.50187e-13 
0.0121901 -0.0515809 -0.037706 
-0.230975 -0.0496351 -0.0749243 
0.0150427 -0.0226725 -0.00275497 
0 0 -5.49783e-14 
0 0 -7.37412e-15 
0.140589 -0.00446908 -0.220504 
-0.0847284 0.0607933 -0.0093123 
-0.0430019 0.0592913 -0.0326277 
-0.0283725 0.00791198 -0.0103086 
-0.0250981 -0.0226543 -0.0241009 
-0.0627828 0.0139076 -0.0313044 
0 0 -5.49783e-14 
0 0 -1.02582e-13 
0 0 -1.02582e-13 
0 0 -7.37411e-15 
0 0 -1.97791e-13 
-0.110888 -0.0076723 0.00146381 
-0.185598 0.0034549 0.0158613 
0 0 -0.157674 
-0.228635 -0.00312689 -0.0667571 
0 0 -0.159731 
0 0 -0.164929 
0.0129153 0.00983684 -0.906605 
0 0 -0.163975 
0 0 -0.164516 
-0.0394872 -0.113225 -0.0271852 
0.108318 -0.147214 -0.277359 
-0.055258 0.0282486 -5.04622e-05 
0 0 -0.158174 
0 0 -0.160673 
-0.0605635 -0.00430019 -0.737348 
-0.146546 0.00242913 0.0569804 
-0.132185 0.0270887 0.0220567 
-0.170781 -0.0966544 -0.00970448 
-0.164922 -0.136473 -0.189448 
-0.144982 -0.104064 -0.0304825 
0 0 -0.164577 
0 0 -0.159174 
0 0 -0.169387 
0 0 -0.162297 
0 0 -0.168132 
0.0307352 -0.0299102 0.0246351 
0 0 -3.17745 
0 0 -3.17745 
0 0 -3.17745 
0 0 -3.17745 
0 0 -3.17745 
-0.00755252 -0.0102174 -0.859238 
0 0 -3.17745 
0 0 -3.17745 
0 0 -3.17745 
0 0 -3.17745 
0 0 -3.17745 
0 0 -3.17745 
0 0 -3.17745 
-0.0226717 -0.0178929 -1.25052 
0 0 -3.17745 
0 0 -3.17745 
0 0 -3.17745 
0 0 -3.17745 
0 0 -3.17745 
0 0 -3.17745 
0 0 -3.17745 
0 0 -3.17745 
0 0 -3.17745 
0 0 -3.17745 
0 0 -3.17745 
0 0 -2.68695 
0 0 -2.68695 
0 0 -2.68695 
0 0 -2.68695 
0 0 -2.68695 
0 0 -2.68695 
0 0 -2.68695 
0 0 -2.68695 
0 0 -2.68695 
0 0 -2.68695 
0 0 -2.68695 
0 0 -2.68695 
0 0 -2.68695 
0 0 -2.68695 
0 0 -2.68695 
0 0 -2.68695 
0 0 -2.68695 
0 0 -2.68695 
0 0 -2.68695 
0 0 -2.68695 
0 0 -2.68695 
0 0 -2.68695 
0 0 -2.68695 
0 0 -2.68695 
0 0 -2.68695 
0 0 -2.19645 
0 0 -2.19645 
0 0 -2.19645 
0 0 -2.19645 
0 0 -2.19645 
0 0 -2.19645 
0 0 -2.19645 
0 0 -2.19645 
0 0 -2.19645 
0 0 -2.19645 
0 0 -2.19645 
0 0 -2.19645 
0 0 -2.19645 
0 0 -2.19645 
0 0 -2.19645 
0 0 -2.19645 
0 0 -2.19645 
0 0 -2.19645 
0 0 -2.19645 
0 0 -2.19645 
0 0 -2.19645 
0 0 -2.19645 
0 0 -2.19645 
0 0 -2.19645 
0 0 -2.19645 
VECTORS spin double
0.565554 -0.52676 1.04926 
0 0 0 
-1.50314 -1.62255 0.00626353 
0 0 0 
0 0 0 
1.57258 -3.08268 1.32082 
0 0 0 
0 0 0 
1.46129 0.819161 -0.670645 
0.585727 -5.68001 1.95637 
-0.222637 -0.384066 1.93388 
0 0 0 
0 0 0 
-0.649971 4.16588 -0.804019 
-3.52505 -1.67262 4.49334 
-1.3204 -1.09923 -0.308395 
-2.587 -2.74995 3.25192 
0.476947 -0.672023 0.135343 
0.420858 -1.80393 -1.60018 
0 0 0 
0 0 0 
0 0 0 
0 0 0 
0 0 0 
0.200543 -1.92989 1.3179 
-2.29934 -4.17961 -0.715207 
0 0 0 
3.19905 -3.12039 1.34197 
0 0 0 
0 0 0 
1.75993 -8.36014 0.482214 
0 0 0 
0 0 0 
1.01272 -1.20744 -1.71422 
5.51047 11.4477 3.55861 
-0.143475 -0.858215 1.52253 
0 0 0 
0 0 0 
2.05462 -8.80157 0.696422 
4.91475 0.101203 2.83144 
1.8473 -0.531599 1.50202 
6.20496 -0.0793129 -0.509642 
3.8901 -6.45026 -0.39232 
1.52981 -0.300259 -0.440116 
0 0 0 
0 0 0 
0 0 0 
0 0 0 
0 0 0 
0.41495 4.42146 -0.111412 
0 0 0 
0 0 0 
0 0 0 
0 0 0 
0 0 0 
-2.11546 9.92155 -0.712219 
0 0 0 
0 0 0 
0 0 0 
0 0 0 
0 0 0 
0 0 0 
0 0 0 
-0.724527 7.52066 0.186739 
0 0 0 
0 0 0 
0 0 0 
0 0 0 
0 0 0 
0 0 0 
0 0 0 
0 0 0 
0 0 0 
0 0 0 
0 0 0 
0 0 0 
0 0 0 
0 0 0 
0 0 0 
0 0 0 
0 0 0 
0 0 0 
0 0 0 
0 0 0 
0 0 0 
0 0 0 
0 0 0 
0 0 0 
0 0 0 
0 0 0 
0 0 0 
0 0 0 
0 0 0 
0 0 0 
0 0 0 
0 0 0 
0 0 0 
0 0 0 
0 0 0 
0 0 0 
0 0 0 
0 0 0 
0 0 0 
0 0 0 
0 0 0 
0 0 0 
0 0 0 
0 0 0 
0 0 0 
0 0 0 
0 0 0 
0 0 0 
0 0 0 
0 0 0 
0 0 0 
0 0 0 
0 0 0 
0 0 0 
0 0 0 
0 0 0 
0 0 0 
0 0 0 
0 0 0 
0 0 0 
0 0 0 
VECTORS force double
-8.15211 -2.61645 -4.86285 
0 0 0 
-5.13626 -2.88501 51.5016 
0 0 0 
0 0 0 
-1.83939 -2.62486 -3.32688 
0 0 0 
0 0 0 
-1.71523 -4.27419 -4.81233 
-1.02432 -3.34405 -5.34628 
-0.318706 -5.15509 -1.95369 
0 0 0 
0 0 0 
449.905 23.0002 -575.864 
-20.6537 -4.08548 8.0471 
-0.129308 -2.04947 -10.683 
1.37628 1.86777 -14.8999 
-3.87702 -2.03778 -3.33174 
-2.77256 4.76436 -3.01888 
0 0 0 
0 0 0 
0 0 0 
0 0 0 
0 0 0 
11.8887 9.25381 27.245 
-0.723593 -0.706178 -4.27099 
0 0 -13.6117 
-5.82643 -4.14828 8.65468 
0 0 -13.6117 
0 0 -13.6117 
3.4117 2.01429 144.566 
0 0 -13.6117 
0 0 -13.6117 
-1.08669 -1.14471 -10.7966 
0 0 -13.6117 
-1.39194 -1.49294 -1.62357 
0 0 -13.6117 
0 0 -13.6117 
-128.084 73.1723 -659.548 
-0.525711 0.418916 -1.49436 
-1.36485 -0.0645616 -6.70176 
0 0 -13.6117 
0 0 -13.6117 
-1.40007 0.694987 -5.87415 
0 0 -13.6117 
0 0 -13.6117 
0 0 -13.6117 
0 0 -13.6117 
0 0 -13.6117 
2.02487 -3.31358 97.3539 
0 0 -13.6117 
0 0 -13.6117 
0 0 -13.6117 
0 0 -13.6117 
0 0 -13.6117 
-3.4117 -2.01429 -171.789 
0 0 -13.6117 
0 0 -13.6117 
0 0 -13.6117 
0 0 -13.6117 
0 0 -13.6117 
0 0 -13.6117 
0 0 -13.6117 
-135.716 -54.3623 1795.27 
0 0 -13.6117 
0 0 -13.6117 
0 0 -13.6117 
0 0 -13.6117 
0 0 -13.6117 
0 0 -13.6117 
0 0 -13.6117 
0 0 -13.6117 
0 0 -13.6117 
0 0 -13.6117 
0 0 -13.6117 
0 0 -13.6117 
0 0 -13.6117 
0 0 -13.6117 
0 0 -13.6117 
0 0 -13.6117 
0 0 -13.6117 
0 0 -13.6117 
0 0 -13.6117 
0 0 -13.6117 
0 0 -13.6117 
0 0 -13.6117 
0 0 -13.6117 
0 0 -13.6117 
0 0 -13.6117 
0 0 -13.6117 
0 0 -13.6117 
0 0 -13.6117 
0 0 -13.6117 
0 0 -13.6117 
0 0 -13.6117 
0 0 -13.6117 
0 0 -13.6117 
0 0 -13.6117 
0 0 -13.6117 
0 0 -13.6117 
0 0 -13.6117 
0 0 -13.6117 
0 0 -13.6117 
0 0 -13.6117 
0 0 -13.6117 
0 0 -13.6117 
0 0 -13.6117 
0 0 -13.6117 
0 0 -13.6117 
0 0 -13.6117 
0 0 -13.6117 
0 0 -13.6117 
0 0 -13.6117 
0 0 -13.6117 
0 0 -13.6117 
0 0 -13.6117 
0 0 -13.6117 
0 0 -13.6117 
0 0 -13.6117 
0 0 -13.6117 
0 0 -13.6117 
0 0 -13.6117 
0 0 -13.6117 
0 0 -13.6117 
0 0 -13.6117 
VECTORS moment double
0.0666124 -0.211558 0.00220949 
0 0 0 
0.292602 -1.41314 -0.151855 
0 0 0 
0 0 0 
0.0553617 -0.0496341 -0.00276626 
0 0 0 
0 0 0 
0.135518 -0.0540663 0.0114033 
0.0353853 -0.0381227 -0.0110385 
0.0452419 -0.00478389 -0.050393 
0 0 0 
0 0 0 
-10.9127 13.5428 -7.5403 
0.0243867 0.081547 -0.015238 
0.0630525 -0.16811 -0.0414623 
0.0392549 -0.0169589 0.0173511 
0.0590326 -0.112477 -3.23517e-05 
-0.0330914 -0.0153724 0.0323979 
0 0 0 
0 0 0 
0 0 0 
0 0 0 
0 0 0 
-0.150316 0.173026 -0.0365683 
-0.0632953 0.143507 0.00594613 
0 0 0 
-0.00596887 0.632514 0.116277 
0 0 0 
0 0 0 
-0.719795 1.86175 -0.00818316 
0 0 0 
0 0 0 
-0.0536442 0.0518304 0.00036815 
0 0 0 
-0.168361 0.00526553 -0.0188926 
0 0 0 
0 0 0 
7.78811 -12.1162 2.16831 
-0.0707307 0.218386 -0.0106186 
-0.107018 0.0123042 -0.0210231 
0 0 0 
0 0 0 
0.170102 0.00625411 0.0302172 
0 0 0 
0 0 0 
0 0 0 
0 0 0 
0 0 0 
0.655349 -0.296836 -0.0208225 
0 0 0 
0 0 0 
0 0 0 
0 0 0 
0 0 0 
0.332987 -1.56853 0.0127921 
0 0 0 
0 0 0 
0 0 0 
0 0 0 
0 0 0 
0 0 0 
0 0 0 
-6.02398 33.3704 0.550917 
0 0 0 
0 0 0 
0 0 0 
0 0 0 
0 0 0 
0 0 0 
0 0 0 
0 0 0 
0 0 0 
0 0 0 
0 0 0 
0 0 0 
0 0 0 
0 0 0 
0 0 0 
0 0 0 
0 0 0 
0 0 0 
0 0 0 
0 0 0 
0 0 0 
0 0 0 
0 0 0 
0 0 0 
0 0 0 
0 0 0 
0 0 0 
0 0 0 
0 0 0 
0 0 0 
0 0 0 
0 0 0 
0 0 0 
0 0 0 
0 0 0 
0 0 0 
0 0 0 
0 0 0 
0 0 0 
0 0 0 
0 0 0 
0 0 0 
0 0 0 
0 0 0 
0 0 0 
0 0 0 
0 0 0 
0 0 0 
0 0 0 
0 0 0 
0 0 0 
0 0 0 
0 0 0 
0 0 0 
0 0 0 
0 0 0 
0 0 0 
0 0 0 
0 0 0 
0 0 0 
0 0 0 
SCALARS shape_id int 1
LOOKUP_TABLE default
0
1
0
1
1
0
1
1
0
0
0
1
1
0
0
0
0
0
0
1
1
1
1
1
0
0
1
0
1
1
0
1
1
0
0
0
1
1
0
0
0
0
0
0
1
1
1
1
1
0
0
1
0
1
1
0
1
1
0
0
0
1
1
0
0
0
0
0
0
1
1
1
1
1
0
0
1
0
1
1
0
1
1
0
0
0
1
1
0
0
0
0
0
0
1
1
1
1
1
0
0
1
0
1
1
0
1
1
0
0
0
1
1
0
0
0
0
0
0
1
1
1
1
1
0
SCALARS size double 1
LOOKUP_TABLE default
0.1
0.1
0.1
0.1
0.1
0.1
0.1
0.1
0.1
0.1
0.1
0.1
0.1
0.1
0.1
0.1
0.1
0.1
0.1
0.1
0.1
0.1
0.1
0.1
0.1
0.1
0.1
0.1
0.1
0.1
0.1
0.1
0.1
0.1
0.1
0.1
0.1
0.1
0.1
0.1
0.1
0.1
0.1
0.1
0.1
0.1
0.1
0.1
0.1
0.1
0.1
0.1
0.1
0.1
0.1
0.1
0.1
0.1
0.1
0.1
0.1
0.1
0.1
0.1
0.1
0.1
0.1
0.1
0.1
0.1
0.1
0.1
0.1
0.1
0.1
0.1
0.1
0.1
0.1
0.1
0.1
0.1
0.1
0.1
0.1
0.1
0.1
0.1
0.1
0.1
0.1
0.1
0.1
0.1
0.1
0.1
0.1
0.1
0.1
0.1
0.1
0.1
0.1
0.1
0.1
0.1
0.1
0.1
0.1
0.1
0.1
0.1
0.1
0.1
0.1
0.1
0.1
0.1
0.1
0.1
0.1
0.1
0.1
0.1
0.1
SCALARS mass double 1
LOOKUP_TABLE default
1.38754
1.38754
1.38754
1.38754
1.38754
1.38754
1.38754
1.38754
1.38754
1.38754
1.38754
1.38754
1.38754
1.38754
1.38754
1.38754
1.38754
1.38754
1.38754
1.38754
1.38754
1.38754
1.38754
1.38754
1.38754
1.38754
1.38754
1.38754
1.38754
1.38754
1.38754
1.38754
1.38754
1.38754
1.38754
1.38754
1.38754
1.38754
1.38754
1.38754
1.38754
1.38754
1.38754
1.38754
1.38754
1.38754
1.38754
1.38754
1.38754
1.38754
1.38754
1.38754
1.38754
1.38754
1.38754
1.38754
1.38754
1.38754
1.38754
1.38754
1.38754
1.38754
1.38754
1.38754
1.38754
1.38754
1.38754
1.38754
1.38754
1.38754
1.38754
1.38754
1.38754
1.38754
1.38754
1.38754
1.38754
1.38754
1.38754
1.38754
1.38754
1.38754
1.38754
1.38754
1.38754
1.38754
1.38754
1.38754
1.38754
1.38754
1.38754
1.38754
1.38754
1.38754
1.38754
1.38754
1.38754
1.38754
1.38754
1.38754
1.38754
1.38754
1.38754
1.38754
1.38754
1.38754
1.38754
1.38754
1.38754
1.38754
1.38754
1.38754
1.38754
1.38754
1.38754
1.38754
1.38754
1.38754
1.38754
1.38754
1.38754
1.38754
1.38754
1.38754
1.38754
VECTORS moi double
0.00116818 0.00159003 0.00189584 
0.00138754 0.00138754 0.00138754 
0.00116818 0.00159003 0.00189584 
0.00138754 0.00138754 0.00138754 
0.00138754 0.00138754 0.00138754 
0.00116818 0.00159003 0.00189584 
0.00138754 0.00138754 0.00138754 
0.00138754 0.00138754 0.00138754 
0.00116818 0.00159003 0.00189584 
0.00116818 0.00159003 0.00189584 
0.00116818 0.00159003 0.00189584 
0.00138754 0.00138754 0.00138754 
0.00138754 0.00138754 0.00138754 
0.00116818 0.00159003 0.00189584 
0.00116818 0.00159003 0.00189584 
0.00116818 0.00159003 0.00189584 
0.00116818 0.00159003 0.00189584 
0.00116818 0.00159003 0.00189584 
0.00116818 0.00159003 0.00189584 
0.00138754 0.00138754 0.00138754 
0.00138754 0.00138754 0.00138754 
0.00138754 0.00138754 0.00138754 
0.00138754 0.00138754 0.00138754 
0.00138754 0.00138754 0.00138754 
0.00116818 0.00159003 0.00189584 
0.00116818 0.00159003 0.00189584 
0.00138754 0.00138754 0.00138754 
0.00116818 0.00159003 0.00189584 
0.00138754 0.00138754 0.00138754 
0.00138754 0.00138754 0.00138754 
0.00116818 0.00159003 0.00189584 
0.00138754 0.00138754 0.00138754 
0.00138754 0.00138754 0.00138754 
0.00116818 0.00159003 0.00189584 
0.00116818 0.00159003 0.00189584 
0.00116818 0.00159003 0.00189584 
0.00138754 0.00138754 0.00138754 
0.00138754 0.00138754 0.00138754 
0.00116818 0.00159003 0.00189584 
0.00116818 0.00159003 0.00189584 
0.00116818 0.00159003 0.00189584 
0.00116818 0.00159003 0.00189584 
0.00116818 0.00159003 0.00189584 
0.00116818 0.00159003 0.00189584 
0.00138754 0.00138754 0.00138754 
0.00138754 0.00138754 0.00138754 
0.00138754 0.00138754 0.00138754 
0.00138754 0.00138754 0.00138754 
0.00138754 0.00138754 0.00138754 
0.00116818 0.00159003 0.00189584 
0.00116818 0.00159003 0.00189584 
0.00138754 0.00138754 0.00138754 
0.00116818 0.00159003 0.00189584 
0.00138754 0.00138754 0.00138754 
0.00138754 0.00138754 0.00138754 
0.00116818 0.00159003 0.00189584 
0.00138754 0.00138754 0.00138754 
0.00138754 0.00138754 0.00138754 
0.00116818 0.00159003 0.00189584 
0.00116818 0.00159003 0.00189584 
0.00116818 0.00159003 0.00189584 
0.00138754 0.00138754 0.00138754 
0.00138754 0.00138754 0.00138754 
0.00116818 0.00159003 0.00189584 
0.00116818 0.00159003 0.00189584 
0.00116818 0.00159003 0.00189584 
0.00116818 0.00159003 0.00189584 
0.00116818 0.00159003 0.00189584 
0.00116818 0.00159003 0.00189584 
0.00138754 0.00138754 0.00138754 
0.00138754 0.00138754 0.00138754 
0.00138754 0.00138754 0.00138754 
0.00138754 0.00138754 0.00138754 
0.00138754 0.00138754 0.00138754 
0.00116818 0.00159003 0.00189584 
0.00116818 0.00159003 0.00189584 
0.00138754 0.00138754 0.00138754 
0.00116818 0.00159003 0.00189584 
0.00138754 0.00138754 0.00138754 
0.00138754 0.00138754 0.00138754 
0.00116818 0.00159003 0.00189584 
0.00138754 0.00138754 0.00138754 
0.00138754 0.00138754 0.00138754 
0.00116818 0.00159003 0.00189584 
0.00116818 0.00159003 0.00189584 
0.00116818 0.00159003 0.00189584 
0.00138754 0.00138754 0.00138754 
0.00138754 0.00138754 0.00138754 
0.00116818 0.00159003 0.00189584 
0.00116818 0.00159003 0.00189584 
0.00116818 0.00159003 0.00189584 
0.00116818 0.00159003 0.00189584 
0.00116818 0.00159003 0.00189584 
0.00116818 0.00159003 0.00189584 
0.00138754 0.00138754 0.00138754 
0.00138754 0.00138754 0.00138754 
0.00138754 0.00138754 0.00138754 
0.00138754 0.00138754 0.00138754 
0.00138754 0.00138754 0.00138754 
0.00116818 0.00159003 0.00189584 
0.00116818 0.00159003 0.00189584 
0.00138754 0.00138754 0.00138754 
0.00116818 0.00159003 0.00189584 
0.00138754 0.00138754 0.00138754 
0.00138754 0.00138754 0.00138754 
0.00116818 0.00159003 0.00189584 
0.00138754 0.00138754 0.00138754 
0.00138754 0.00138754 0.00138754 
0.00116818 0.00159003 0.00189584 
0.00116818 0.00159003 0.00189584 
0.00116818 0.00159003 0.00189584 
0.00138754 0.00138754 0.00138754 
0.00138754 0.00138754 0.00138754 
0.00116818 0.00159003 0.00189584 
0.00116818 0.00159003 0.00189584 
0.00116818 0.00159003 0.00189584 
0.00116818 0.00159003 0.00189584 
0.00116818 0.00159003 0.00189584 
0.00116818 0.00159003 0.00189584 
0.00138754 0.00138754 0.00138754 
0.00138754 0.00138754 0.00138754 
0.00138754 0.00138754 0.00138754 
0.00138754 0.00138754 0.00138754 
0.00138754 0.00138754 0.00138754 
0.00116818 0.00159003 0.00189584 
SCALARS mask int 1
LOOKUP_TABLE default
0
0
0
0
0
0
0
0
0
0
0
0
0
0
0
0
0
0
0
0
0
0
0
0
0
0
0
0
0
0
0
0
0
0
0
0
0
0
0
0
0
0
0
0
0
0
0
0
0
0
0
0
0
0
0
0
0
0
0
0
0
0
0
0
0
0
0
0
0
0
0
0
0
0
0
0
0
0
0
0
0
0
0
0
0
0
0
0
0
0
0
0
0
0
0
0
0
0
0
0
0
0
0
0
0
0
0
0
0
0
0
0
0
0
0
0
0
0
0
0
0
0
0
0
0
