# vtk DataFile Version 2.0
Generated by NetDEM
ASCII 
DATASET POLYDATA
POINTS 500 double
-0.421595 -0.393037 -0.462271 
-0.44996 -0.189974 -0.450036 
-0.405127 -0.0125454 -0.462862 
-0.450003 0.107657 -0.450126 
-0.450023 0.349928 -0.450038 
-0.293639 -0.4269 -0.454288 
-0.354561 -0.226048 -0.450011 
-0.188253 -0.00587312 -0.450034 
-0.173339 0.17877 -0.463992 
-0.25624 0.369323 -0.464393 
-0.046064 -0.403483 -0.46386 
-0.151908 -0.130141 -0.450015 
-0.0518595 -0.0920985 -0.45008 
0.0392599 0.180705 -0.453038 
-0.0277516 0.320281 -0.443952 
0.192273 -0.40814 -0.463984 
0.165821 -0.208365 -0.463316 
0.171317 -0.00239893 -0.463321 
0.162338 0.203688 -0.464289 
0.293952 0.407349 -0.420537 
0.448224 -0.412352 -0.450035 
0.435066 -0.293231 -0.450021 
0.342463 -0.0124842 -0.450067 
0.374233 0.087022 -0.450012 
0.37242 0.441023 -0.464806 
-0.439299 -0.400726 -0.393573 
-0.450002 -0.278282 -0.403149 
-0.40841 -0.0124477 -0.391192 
-0.442466 0.178635 -0.379814 
-0.449512 0.449989 -0.45005 
-0.35047 -0.390454 -0.394306 
-0.266949 -0.105488 -0.450007 
-0.164973 -0.10151 -0.224306 
-0.304553 0.166006 -0.465063 
-0.153917 0.406628 -0.452896 
-0.0990169 -0.36254 -0.407217 
0.298429 -0.251363 -0.150854 
-0.052038 -0.0158487 -0.315507 
0.0321823 0.261273 -0.452327 
0.128428 0.303218 -0.445476 
0.195271 -0.423734 -0.392322 
0.167588 -0.211726 -0.39161 
0.176893 0.0256642 -0.387952 
0.195225 0.113652 -0.454833 
0.28714 0.365768 -0.329872 
0.373808 -0.450004 -0.394865 
0.436126 -0.353415 -0.370187 
0.268084 -0.212239 -0.450059 
0.449677 0.152666 -0.450007 
0.425602 0.341651 -0.456722 
-0.436857 -0.44068 -0.330746 
-0.276826 -0.208889 -0.389495 
-0.299171 -0.000156564 -0.438984 
-0.285876 0.276069 -0.450015 
-0.448773 0.279688 -0.378853 
-0.197019 -0.378503 -0.452583 
0.199069 -0.354727 -0.309472 
-0.246236 -0.0442231 -0.213306 
-0.169484 0.079508 -0.451714 
-0.349192 0.334323 -0.34273 
0.0498795 -0.439374 -0.45095 
0.206824 -0.275951 -0.195121 
0.203262 0.0532066 -0.226004 
-0.037893 0.225584 -0.396782 
0.254044 0.333122 -0.463605 
0.184491 -0.448962 -0.323303 
0.0548835 -0.101304 -0.45174 
0.159701 0.069133 -0.331818 
0.267806 0.0657891 -0.442066 
0.113649 0.135649 -0.393141 
0.285649 -0.45 -0.450008 
0.372861 -0.209522 -0.450079 
0.375726 -0.109462 -0.450024 
0.449751 0.219452 -0.368801 
0.436584 0.25495 -0.460355 
-0.430075 -0.452455 -0.246059 
-0.195314 -0.154737 -0.363294 
-0.24066 0.00413473 -0.356206 
-0.263503 0.093092 -0.410912 
-0.347013 0.143428 -0.367666 
-0.175146 -0.446239 -0.408734 
-0.123496 -0.0544073 -0.391232 
-0.22306 0.0494287 -0.244015 
-0.0560603 0.131465 -0.448875 
-0.365178 0.381929 -0.412741 
0.0746869 -0.460047 -0.352383 
0.444947 -0.343708 -0.107577 
-0.199054 -0.225875 -0.450014 
0.014989 0.0479626 -0.450645 
0.0705661 0.398176 -0.414698 
0.255777 -0.44401 -0.254483 
0.148275 -0.327543 -0.400562 
0.11309 0.0757103 -0.275057 
0.266526 0.172809 -0.437756 
0.140978 0.450016 -0.450008 
0.350554 -0.308957 -0.398935 
0.449941 -0.10407 -0.383232 
0.386527 0.144026 -0.350881 
0.331064 0.313854 -0.410472 
0.438018 0.370913 -0.37837 
-0.382355 -0.439307 -0.175127 
-0.364834 -0.350096 -0.142276 
-0.29539 -0.0427986 -0.293309 
-0.357903 0.071319 -0.436322 
-0.450007 0.435756 -0.351088 
-0.292448 -0.428214 -0.354476 
-0.0755101 -0.142913 -0.367297 
-0.240317 0.0339652 -0.14675 
-0.00207051 -0.02787 -0.388576 
-0.431884 0.25078 -0.458689 
0.0744679 -0.345743 -0.440276 
0.356381 -0.204632 -0.0840972 
0.055725 -0.122309 -0.361959 
0.0276609 0.0436371 -0.360189 
-0.00455615 0.4326 -0.462842 
0.296674 -0.388254 -0.230258 
0.256501 -0.311904 -0.446348 
0.0304166 0.0685552 -0.269538 
0.255058 0.246143 -0.38695 
0.344484 0.450004 -0.28025 
0.297116 -0.392357 -0.366679 
0.45004 -0.211601 -0.386589 
0.449593 -0.0296624 -0.450053 
0.348072 0.215313 -0.410029 
0.402034 0.452066 -0.375509 
-0.461106 -0.452128 -0.136245 
-0.320558 -0.142092 -0.31885 
-0.450888 -0.0271323 -0.322311 
-0.253848 0.198048 -0.396056 
-0.301291 0.45 -0.385368 
-0.168786 -0.386365 -0.347719 
-0.0804994 -0.200136 -0.450008 
-0.20501 -0.165404 -0.158649 
-0.136831 0.150825 -0.40218 
-0.226657 0.340102 -0.395307 
-0.046748 -0.283319 -0.451447 
0.275267 -0.322978 -0.0850344 
0.449958 0.0533829 -0.177408 
0.0331266 0.126636 -0.336774 
-0.118194 0.312685 -0.41464 
0.133413 -0.451943 -0.261862 
0.23905 -0.141931 -0.404292 
0.101031 -0.0223922 -0.240522 
0.196261 0.306103 -0.344176 
0.198589 0.38656 -0.39852 
0.450004 -0.44409 -0.330343 
0.326262 -0.171485 -0.37026 
0.253682 -0.0583573 -0.450047 
0.450003 0.0537689 -0.393868 
0.440628 0.40947 -0.302123 
-0.431446 -0.457686 -0.0250558 
-0.236432 -0.175217 -0.274465 
-0.422857 -0.105507 -0.411066 
-0.208771 0.268865 -0.341749 
-0.357535 0.240283 -0.390167 
-0.169438 -0.288386 -0.370292 
0.141922 -0.449984 -0.11672 
-0.302377 0.369484 -0.19839 
-0.106817 0.274355 -0.334299 
-0.222758 0.462964 -0.451462 
0.00575986 -0.314817 -0.359843 
0.113937 -0.242526 -0.165034 
-0.187406 -0.0663845 -0.315177 
0.0141914 0.203507 -0.307599 
0.0188686 0.298939 -0.355687 
0.0497141 -0.418543 -0.277817 
0.142028 -0.101932 -0.404728 
0.252603 -0.115777 -0.268906 
0.245325 0.188494 -0.321503 
0.137251 0.449255 -0.350016 
0.384283 -0.230029 -0.313545 
0.349641 -0.063875 -0.364539 
0.320544 0.0489387 -0.374305 
0.415688 0.299771 -0.309625 
0.446825 0.379783 -0.218173 
-0.303062 -0.438196 -0.124053 
-0.449958 -0.102486 -0.272321 
-0.35848 0.00950444 -0.280436 
-0.449941 0.072575 -0.356542 
-0.414322 0.266427 -0.285973 
-0.280976 -0.300481 -0.447932 
-0.181785 -0.265502 -0.251776 
-0.141443 0.398861 -0.093201 
-0.121367 0.189095 -0.337359 
-0.132052 0.440844 -0.359435 
-0.00622292 -0.421593 -0.365507 
0.016887 -0.0887391 -0.276163 
0.0308298 -0.209212 -0.450007 
-0.0227137 0.273945 -0.260151 
-0.00209182 0.402355 -0.371733 
0.0609066 -0.440183 -0.176995 
0.103637 -0.0450021 -0.349355 
0.284861 -0.159298 -0.198781 
0.200097 0.135521 -0.278363 
0.24537 0.45 -0.295448 
0.45 -0.305902 -0.283298 
0.450014 -0.149922 -0.294409 
0.366047 0.03737 -0.285999 
0.324665 0.260208 -0.322056 
0.384431 0.429436 -0.206798 
-0.251249 -0.445143 -0.197872 
-0.435044 0.226028 -0.196922 
-0.289403 0.186454 -0.202448 
-0.149146 0.0581393 -0.352166 
-0.36204 0.449984 -0.305725 
-0.220367 -0.340889 -0.270482 
-0.0349732 -0.232348 -0.347945 
0.0183851 -0.259263 -0.267612 
-0.101536 0.110495 -0.253805 
-0.160293 0.348036 -0.332537 
-0.0468542 -0.379479 -0.302297 
-0.208249 -0.0902196 0.0932374 
-0.0349337 0.208086 -0.178589 
-0.0593762 0.0991408 -0.340227 
0.107674 0.353284 -0.339226 
0.232016 -0.428918 -0.159786 
0.219555 -0.199246 -0.316664 
0.289809 -0.101677 -0.138373 
0.153365 0.221058 -0.302344 
0.188613 0.36158 -0.271073 
0.403609 -0.393933 -0.257337 
0.440759 -0.223522 -0.227377 
0.444895 -0.0210566 -0.327724 
0.301661 0.11324 -0.300105 
0.412776 0.401011 -0.132259 
-0.254106 -0.335938 -0.180838 
-0.43409 -0.319896 -0.313632 
-0.441083 0.345433 -0.133369 
-0.344142 0.326064 -0.0754626 
-0.44836 0.41111 -0.0342267 
-0.140969 -0.418274 -0.278833 
-0.0499901 0.140352 -0.0891832 
-0.255903 -0.171339 -0.0727899 
-0.178689 0.174166 -0.209488 
-0.158348 0.340398 -0.226401 
-0.0707869 -0.386512 -0.220442 
-0.141959 -0.139735 -0.0484691 
-0.116766 -0.0150882 -0.239245 
-0.0158133 0.108441 -0.208364 
0.0307987 0.447345 -0.286335 
0.29592 -0.331384 -0.183223 
0.254028 -0.306204 -0.356177 
0.34996 -0.0435065 -0.0933989 
0.144742 0.276772 -0.238788 
0.212624 0.389747 -0.161869 
0.355724 -0.450016 -0.18593 
0.449965 -0.197704 -0.12079 
0.344076 0.126089 -0.0303451 
0.447834 0.152901 -0.187021 
0.423462 0.367956 -0.052168 
-0.326749 -0.325742 -0.312557 
-0.127654 -0.198467 -0.302538 
-0.328856 -0.0124098 -0.174519 
-0.223595 0.189138 -0.283257 
-0.419475 0.448768 -0.223882 
-0.254249 -0.430671 -0.289617 
0.135071 -0.346581 -0.23307 
-0.307336 0.253869 -0.147042 
-0.244534 0.298796 -0.220018 
-0.146858 0.442027 -0.257138 
0.00323136 -0.376528 -0.185812 
0.450012 -0.39197 -0.020151 
0.0755288 0.442282 -0.194528 
-0.0752822 0.405919 -0.329395 
-0.0421927 0.449286 -0.229958 
0.357223 -0.387082 -0.111 
0.371698 -0.0970336 -0.178136 
0.184063 -0.0222593 -0.294521 
0.216166 0.202591 -0.215639 
0.0946416 0.245349 -0.371142 
0.350664 -0.309251 -0.26269 
0.350544 -0.150089 -0.263883 
0.449997 0.0909952 -0.294683 
0.450008 0.209646 -0.269312 
0.40412 0.454452 -0.0356701 
-0.342515 -0.394818 -0.022457 
-0.147196 -0.343919 -0.195025 
-0.435414 -0.113743 -0.187788 
-0.449997 0.0989085 -0.199793 
-0.338379 0.201353 -0.286654 
-0.150825 -0.44526 -0.197207 
-0.0828214 -0.285143 -0.277346 
-0.224959 0.448323 -0.320727 
-0.281942 0.309769 -0.290235 
-0.226592 0.434287 -0.19788 
0.0530471 -0.401514 -0.0978595 
-0.117829 0.450001 0.103438 
0.0366932 0.184406 -0.112945 
-0.0722538 0.309945 -0.21347 
0.0118877 0.366723 -0.226632 
0.267646 -0.421752 -0.0636077 
0.0327647 -0.0954133 -0.036872 
0.143544 -0.0427292 -0.160452 
0.285034 0.177391 -0.159985 
0.0494736 0.260084 -0.193285 
0.390514 -0.289709 -0.171744 
0.449943 -0.129618 -0.194073 
0.325953 -0.0531173 -0.267982 
0.449568 0.28285 -0.201187 
0.301718 0.414022 -0.108389 
-0.287656 -0.348672 -0.0805919 
-0.430108 0.00291379 -0.224941 
-0.393872 -0.276356 -0.110992 
-0.429591 0.142112 -0.287598 
-0.450002 0.450003 -0.126331 
-0.115748 -0.435831 -0.103753 
-0.125857 -0.324551 -0.094809 
-0.284 0.0881586 -0.313171 
-0.135595 0.275065 -0.1334 
-0.24036 0.389297 -0.116077 
-0.0121645 -0.418519 -0.0240847 
-0.41069 -0.18176 -0.336371 
-0.00205476 -0.000996677 -0.230179 
-0.0380057 0.29473 -0.122814 
-0.0086241 0.444531 -0.142882 
0.14551 -0.373927 -0.0445074 
0.447426 0.00424387 0.0039498 
0.074405 -0.0263009 -0.0965762 
0.303772 0.333368 -0.244341 
0.282043 0.449383 -0.202155 
0.373696 -0.45001 -0.0485499 
0.429593 -0.0503484 0.0723623 
0.241406 -0.0525857 -0.350988 
0.347325 0.257686 -0.210521 
0.438081 0.450885 0.050291 
-0.35114 -0.199306 -0.0682241 
-0.388 -0.295286 -0.222613 
-0.406016 0.0975913 -0.125121 
-0.384649 0.312826 -0.202558 
-0.450007 0.359844 -0.286044 
-0.169512 -0.43906 0.0167328 
-0.0708252 -0.126703 -0.246651 
-0.222382 0.295547 -0.114698 
-0.101457 0.392476 -0.180452 
-0.0721407 0.437939 -0.0620569 
-0.0859602 -0.450418 0.00463413 
0.0799931 -0.182649 -0.285889 
-0.0762521 0.0632722 -0.147224 
0.0387137 0.251971 -0.0582751 
0.0106668 0.422303 -0.0743825 
0.16149 -0.345026 -0.123346 
0.179803 -0.190457 -0.23445 
0.110472 0.16278 -0.236257 
0.309139 0.219716 -0.0773008 
0.169135 0.450034 -0.228756 
0.450012 -0.419515 -0.172534 
0.320285 -0.25932 -0.00856548 
0.42063 -0.026015 -0.230837 
0.36503 0.164485 -0.242165 
0.414397 0.26879 0.0729437 
-0.420246 -0.379595 0.0252062 
-0.450013 -0.223673 -0.254568 
-0.364924 0.215124 -0.0959606 
-0.448359 0.0498019 -0.0373984 
-0.45002 0.184223 -0.107369 
-0.216549 -0.380128 -0.032809 
-0.280027 -0.0974269 -0.135677 
-0.333854 -0.105943 -0.22411 
-0.188124 0.350432 -0.0294245 
-0.129851 0.40147 0.00588855 
0.0326405 -0.19069 -0.150896 
-0.153759 -0.251249 -0.156844 
0.21975 0.116318 -0.126836 
0.0905274 0.332892 -0.110067 
-0.0201065 0.439893 0.0182849 
0.0905135 -0.219025 -0.0613784 
0.455582 -0.0641326 -0.123302 
0.283409 0.0661632 -0.0555505 
0.177357 0.223974 -0.135348 
0.100479 0.33084 0.0296613 
0.396407 -0.0873066 -0.0351478 
0.450014 -0.26675 -0.043864 
0.360262 0.0120431 -0.160794 
0.422575 0.111969 -0.0993466 
0.321266 0.324298 -0.144937 
-0.423317 -0.193344 -0.164701 
-0.450009 -0.223444 -0.0666836 
-0.402578 -0.0137434 -0.128593 
-0.450002 0.276267 0.0280671 
-0.339882 0.450008 -0.152469 
-0.234432 -0.300978 0.0367418 
-0.269294 -0.264678 -0.0394814 
-0.32905 0.0668499 -0.0782924 
-0.122185 0.217907 -0.0647869 
-0.123905 0.188048 0.00263457 
0.0271149 -0.30945 -0.047857 
-0.114981 -0.103602 -0.137725 
0.107553 0.113734 -0.11167 
-0.158685 0.0994658 -0.142837 
0.0460361 0.400209 0.0817493 
0.0377156 -0.28919 -0.154616 
0.281811 -0.0712182 -0.0357378 
0.263313 0.0264837 -0.125488 
0.18212 0.286465 -0.0602922 
0.112499 0.349328 -0.198331 
0.322374 -0.343355 0.0455927 
0.258057 -0.181069 -0.0922956 
0.418991 0.19193 -0.0393889 
0.400954 0.243219 -0.123314 
0.436234 0.284414 -0.0362238 
-0.336095 -0.334408 0.0561541 
-0.339684 -0.239251 -0.29569 
-0.451505 -0.0778199 -0.0687978 
-0.449982 0.118397 0.0636525 
-0.272621 0.369597 -0.0207922 
-0.0642591 -0.187205 -0.183691 
-0.177103 -0.232462 -0.0614392 
-0.261524 -0.0251909 -0.068976 
-0.280984 0.224005 -0.0379846 
-0.207345 0.41636 0.0506287 
0.200555 -0.0636673 -0.110775 
-0.00172619 -0.0862586 -0.177931 
-0.13548 -0.0280742 0.0642216 
-0.0310692 0.24721 0.0032134 
-0.0770383 0.343252 0.0530852 
0.314031 -0.441463 0.0479391 
0.330905 -0.217176 0.0758521 
0.173102 0.036069 -0.141012 
0.263296 0.281781 -0.0269516 
0.238197 0.450001 -0.043249 
0.450008 -0.170066 -0.0184521 
0.317646 0.354529 -0.037294 
0.449887 0.0889368 -0.00595846 
0.435414 0.166188 0.0558605 
0.374235 0.359274 0.0546741 
-0.40101 -0.37734 0.11784 
-0.413954 -0.262621 0.0179536 
-0.192255 -0.0610044 -0.118721 
-0.45 0.279576 -0.0744391 
-0.384371 0.35016 0.0128524 
-0.206448 -0.391093 0.0671753 
-0.285757 -0.0490018 0.0338797 
-0.0435052 -0.0242145 -0.111569 
-0.274521 0.132222 -0.128249 
-0.287458 0.392494 0.10194 
0.187705 -0.452595 -0.013306 
0.115004 -0.140088 -0.172728 
0.0273183 0.0564017 -0.129136 
-0.0857054 0.106814 0.0337669 
-0.0421615 0.400695 0.118659 
0.312426 -0.421319 0.145711 
0.200267 -0.120234 -0.0190701 
0.102622 0.194098 -0.0495542 
0.2604 0.171523 0.106041 
0.153 0.415939 -0.0856591 
0.411706 -0.449966 0.0517571 
0.337205 -0.159091 0.00283301 
-0.217184 0.0993068 -0.0701397 
0.352017 0.222626 0.0282478 
0.321783 0.449271 0.0256985 
-0.441724 -0.449893 0.121219 
-0.276865 0.0461509 0.00445231 
-0.384499 -0.0159066 -0.0198196 
-0.41054 0.14476 -0.0244101 
-0.450006 0.413898 0.0657251 
-0.293807 -0.44572 0.0422831 
-0.2369 -0.15673 0.0242848 
-0.177676 0.0347807 -0.00110896 
-0.321701 0.127062 0.0110791 
-0.390968 0.403248 0.152649 
0.234516 -0.23481 0.089979 
-0.046065 -0.14335 -0.0770842 
-0.0929152 0.0580836 -0.0487587 
0.0198513 0.340582 -0.0238981 
0.0118804 0.303495 0.0734282 
0.19327 -0.250538 -0.0965642 
0.209336 -0.277799 -0.00140487 
0.182896 -0.00262279 -0.0453375 
0.189435 0.171818 -0.0347977 
0.0869629 0.425569 -0.0109346 
0.4203 -0.349044 0.0651357 
0.44936 -0.148132 0.0791055 
0.343616 0.00542285 -0.00771179 
0.267613 0.168098 0.0186541 
0.455625 0.35173 0.0924722 
-0.313948 -0.299289 0.121249 
-0.195155 -0.0662249 -0.0064418 
-0.429844 -0.0193918 0.0790988 
-0.365623 0.22278 0.019578 
-0.354528 0.449164 -0.0535566 
-0.168757 -0.238613 0.0328262 
-0.185227 -0.18656 0.109704 
-0.0886066 -0.0386276 -0.0234863 
-0.301428 0.299634 0.0469277 
-0.208669 0.240184 0.0301478 
-0.0430754 -0.118223 0.0154255 
-0.0385271 -0.240035 -0.118953 
0.0140328 0.00752639 -0.0361792 
0.232026 -0.166775 0.0304157 
0.0116402 0.448182 0.188958 
0.215393 -0.368544 0.0394272 
0.444224 -0.291848 0.129291 
0.301406 0.0626418 0.0569444 
0.183626 0.249639 0.0417009 
0.186352 0.371813 -0.00110102 
0.402681 -0.409804 0.142886 
0.449994 -0.206497 0.160298 
0.321375 -0.0696198 0.0592218 
0.399089 0.0761004 0.0796541 
0.236766 0.426636 0.072749 
VERTICES 500 1000
1 0
1 1
1 2
1 3
1 4
1 5
1 6
1 7
1 8
1 9
1 10
1 11
1 12
1 13
1 14
1 15
1 16
1 17
1 18
1 19
1 20
1 21
1 22
1 23
1 24
1 25
1 26
1 27
1 28
1 29
1 30
1 31
1 32
1 33
1 34
1 35
1 36
1 37
1 38
1 39
1 40
1 41
1 42
1 43
1 44
1 45
1 46
1 47
1 48
1 49
1 50
1 51
1 52
1 53
1 54
1 55
1 56
1 57
1 58
1 59
1 60
1 61
1 62
1 63
1 64
1 65
1 66
1 67
1 68
1 69
1 70
1 71
1 72
1 73
1 74
1 75
1 76
1 77
1 78
1 79
1 80
1 81
1 82
1 83
1 84
1 85
1 86
1 87
1 88
1 89
1 90
1 91
1 92
1 93
1 94
1 95
1 96
1 97
1 98
1 99
1 100
1 101
1 102
1 103
1 104
1 105
1 106
1 107
1 108
1 109
1 110
1 111
1 112
1 113
1 114
1 115
1 116
1 117
1 118
1 119
1 120
1 121
1 122
1 123
1 124
1 125
1 126
1 127
1 128
1 129
1 130
1 131
1 132
1 133
1 134
1 135
1 136
1 137
1 138
1 139
1 140
1 141
1 142
1 143
1 144
1 145
1 146
1 147
1 148
1 149
1 150
1 151
1 152
1 153
1 154
1 155
1 156
1 157
1 158
1 159
1 160
1 161
1 162
1 163
1 164
1 165
1 166
1 167
1 168
1 169
1 170
1 171
1 172
1 173
1 174
1 175
1 176
1 177
1 178
1 179
1 180
1 181
1 182
1 183
1 184
1 185
1 186
1 187
1 188
1 189
1 190
1 191
1 192
1 193
1 194
1 195
1 196
1 197
1 198
1 199
1 200
1 201
1 202
1 203
1 204
1 205
1 206
1 207
1 208
1 209
1 210
1 211
1 212
1 213
1 214
1 215
1 216
1 217
1 218
1 219
1 220
1 221
1 222
1 223
1 224
1 225
1 226
1 227
1 228
1 229
1 230
1 231
1 232
1 233
1 234
1 235
1 236
1 237
1 238
1 239
1 240
1 241
1 242
1 243
1 244
1 245
1 246
1 247
1 248
1 249
1 250
1 251
1 252
1 253
1 254
1 255
1 256
1 257
1 258
1 259
1 260
1 261
1 262
1 263
1 264
1 265
1 266
1 267
1 268
1 269
1 270
1 271
1 272
1 273
1 274
1 275
1 276
1 277
1 278
1 279
1 280
1 281
1 282
1 283
1 284
1 285
1 286
1 287
1 288
1 289
1 290
1 291
1 292
1 293
1 294
1 295
1 296
1 297
1 298
1 299
1 300
1 301
1 302
1 303
1 304
1 305
1 306
1 307
1 308
1 309
1 310
1 311
1 312
1 313
1 314
1 315
1 316
1 317
1 318
1 319
1 320
1 321
1 322
1 323
1 324
1 325
1 326
1 327
1 328
1 329
1 330
1 331
1 332
1 333
1 334
1 335
1 336
1 337
1 338
1 339
1 340
1 341
1 342
1 343
1 344
1 345
1 346
1 347
1 348
1 349
1 350
1 351
1 352
1 353
1 354
1 355
1 356
1 357
1 358
1 359
1 360
1 361
1 362
1 363
1 364
1 365
1 366
1 367
1 368
1 369
1 370
1 371
1 372
1 373
1 374
1 375
1 376
1 377
1 378
1 379
1 380
1 381
1 382
1 383
1 384
1 385
1 386
1 387
1 388
1 389
1 390
1 391
1 392
1 393
1 394
1 395
1 396
1 397
1 398
1 399
1 400
1 401
1 402
1 403
1 404
1 405
1 406
1 407
1 408
1 409
1 410
1 411
1 412
1 413
1 414
1 415
1 416
1 417
1 418
1 419
1 420
1 421
1 422
1 423
1 424
1 425
1 426
1 427
1 428
1 429
1 430
1 431
1 432
1 433
1 434
1 435
1 436
1 437
1 438
1 439
1 440
1 441
1 442
1 443
1 444
1 445
1 446
1 447
1 448
1 449
1 450
1 451
1 452
1 453
1 454
1 455
1 456
1 457
1 458
1 459
1 460
1 461
1 462
1 463
1 464
1 465
1 466
1 467
1 468
1 469
1 470
1 471
1 472
1 473
1 474
1 475
1 476
1 477
1 478
1 479
1 480
1 481
1 482
1 483
1 484
1 485
1 486
1 487
1 488
1 489
1 490
1 491
1 492
1 493
1 494
1 495
1 496
1 497
1 498
1 499
POINT_DATA 500
SCALARS id int 1
LOOKUP_TABLE default
0
1
2
3
4
5
6
7
8
9
10
11
12
13
14
15
16
17
18
19
20
21
22
23
24
25
26
27
28
29
30
31
32
33
34
35
36
37
38
39
40
41
42
43
44
45
46
47
48
49
50
51
52
53
54
55
56
57
58
59
60
61
62
63
64
65
66
67
68
69
70
71
72
73
74
75
76
77
78
79
80
81
82
83
84
85
86
87
88
89
90
91
92
93
94
95
96
97
98
99
100
101
102
103
104
105
106
107
108
109
110
111
112
113
114
115
116
117
118
119
120
121
122
123
124
125
126
127
128
129
130
131
132
133
134
135
136
137
138
139
140
141
142
143
144
145
146
147
148
149
150
151
152
153
154
155
156
157
158
159
160
161
162
163
164
165
166
167
168
169
170
171
172
173
174
175
176
177
178
179
180
181
182
183
184
185
186
187
188
189
190
191
192
193
194
195
196
197
198
199
200
201
202
203
204
205
206
207
208
209
210
211
212
213
214
215
216
217
218
219
220
221
222
223
224
225
226
227
228
229
230
231
232
233
234
235
236
237
238
239
240
241
242
243
244
245
246
247
248
249
250
251
252
253
254
255
256
257
258
259
260
261
262
263
264
265
266
267
268
269
270
271
272
273
274
275
276
277
278
279
280
281
282
283
284
285
286
287
288
289
290
291
292
293
294
295
296
297
298
299
300
301
302
303
304
305
306
307
308
309
310
311
312
313
314
315
316
317
318
319
320
321
322
323
324
325
326
327
328
329
330
331
332
333
334
335
336
337
338
339
340
341
342
343
344
345
346
347
348
349
350
351
352
353
354
355
356
357
358
359
360
361
362
363
364
365
366
367
368
369
370
371
372
373
374
375
376
377
378
379
380
381
382
383
384
385
386
387
388
389
390
391
392
393
394
395
396
397
398
399
400
401
402
403
404
405
406
407
408
409
410
411
412
413
414
415
416
417
418
419
420
421
422
423
424
425
426
427
428
429
430
431
432
433
434
435
436
437
438
439
440
441
442
443
444
445
446
447
448
449
450
451
452
453
454
455
456
457
458
459
460
461
462
463
464
465
466
467
468
469
470
471
472
473
474
475
476
477
478
479
480
481
482
483
484
485
486
487
488
489
490
491
492
493
494
495
496
497
498
499
SCALARS type int 1
LOOKUP_TABLE default
0
0
0
0
0
0
0
0
0
0
0
0
0
0
0
0
0
0
0
0
0
0
0
0
0
0
0
0
0
0
0
0
0
0
0
0
0
0
0
0
0
0
0
0
0
0
0
0
0
0
0
0
0
0
0
0
0
0
0
0
0
0
0
0
0
0
0
0
0
0
0
0
0
0
0
0
0
0
0
0
0
0
0
0
0
0
0
0
0
0
0
0
0
0
0
0
0
0
0
0
0
0
0
0
0
0
0
0
0
0
0
0
0
0
0
0
0
0
0
0
0
0
0
0
0
0
0
0
0
0
0
0
0
0
0
0
0
0
0
0
0
0
0
0
0
0
0
0
0
0
0
0
0
0
0
0
0
0
0
0
0
0
0
0
0
0
0
0
0
0
0
0
0
0
0
0
0
0
0
0
0
0
0
0
0
0
0
0
0
0
0
0
0
0
0
0
0
0
0
0
0
0
0
0
0
0
0
0
0
0
0
0
0
0
0
0
0
0
0
0
0
0
0
0
0
0
0
0
0
0
0
0
0
0
0
0
0
0
0
0
0
0
0
0
0
0
0
0
0
0
0
0
0
0
0
0
0
0
0
0
0
0
0
0
0
0
0
0
0
0
0
0
0
0
0
0
0
0
0
0
0
0
0
0
0
0
0
0
0
0
0
0
0
0
0
0
0
0
0
0
0
0
0
0
0
0
0
0
0
0
0
0
0
0
0
0
0
0
0
0
0
0
0
0
0
0
0
0
0
0
0
0
0
0
0
0
0
0
0
0
0
0
0
0
0
0
0
0
0
0
0
0
0
0
0
0
0
0
0
0
0
0
0
0
0
0
0
0
0
0
0
0
0
0
0
0
0
0
0
0
0
0
0
0
0
0
0
0
0
0
0
0
0
0
0
0
0
0
0
0
0
0
0
0
0
0
0
0
0
0
0
0
0
0
0
0
0
0
0
0
0
0
0
0
0
0
0
0
0
0
0
0
0
0
0
0
0
0
0
0
0
0
0
0
0
0
0
0
0
0
0
0
0
0
0
0
0
0
0
0
0
0
0
0
0
0
0
0
0
0
0
0
0
0
0
0
0
0
0
0
0
0
0
0
0
0
0
0
0
0
0
0
0
0
0
0
0
0
0
0
SCALARS damp_viscous double 1
LOOKUP_TABLE default
0
0
0
0
0
0
0
0
0
0
0
0
0
0
0
0
0
0
0
0
0
0
0
0
0
0
0
0
0
0
0
0
0
0
0
0
0
0
0
0
0
0
0
0
0
0
0
0
0
0
0
0
0
0
0
0
0
0
0
0
0
0
0
0
0
0
0
0
0
0
0
0
0
0
0
0
0
0
0
0
0
0
0
0
0
0
0
0
0
0
0
0
0
0
0
0
0
0
0
0
0
0
0
0
0
0
0
0
0
0
0
0
0
0
0
0
0
0
0
0
0
0
0
0
0
0
0
0
0
0
0
0
0
0
0
0
0
0
0
0
0
0
0
0
0
0
0
0
0
0
0
0
0
0
0
0
0
0
0
0
0
0
0
0
0
0
0
0
0
0
0
0
0
0
0
0
0
0
0
0
0
0
0
0
0
0
0
0
0
0
0
0
0
0
0
0
0
0
0
0
0
0
0
0
0
0
0
0
0
0
0
0
0
0
0
0
0
0
0
0
0
0
0
0
0
0
0
0
0
0
0
0
0
0
0
0
0
0
0
0
0
0
0
0
0
0
0
0
0
0
0
0
0
0
0
0
0
0
0
0
0
0
0
0
0
0
0
0
0
0
0
0
0
0
0
0
0
0
0
0
0
0
0
0
0
0
0
0
0
0
0
0
0
0
0
0
0
0
0
0
0
0
0
0
0
0
0
0
0
0
0
0
0
0
0
0
0
0
0
0
0
0
0
0
0
0
0
0
0
0
0
0
0
0
0
0
0
0
0
0
0
0
0
0
0
0
0
0
0
0
0
0
0
0
0
0
0
0
0
0
0
0
0
0
0
0
0
0
0
0
0
0
0
0
0
0
0
0
0
0
0
0
0
0
0
0
0
0
0
0
0
0
0
0
0
0
0
0
0
0
0
0
0
0
0
0
0
0
0
0
0
0
0
0
0
0
0
0
0
0
0
0
0
0
0
0
0
0
0
0
0
0
0
0
0
0
0
0
0
0
0
0
0
0
0
0
0
0
0
0
0
0
0
0
0
0
0
0
0
0
0
0
0
0
0
0
0
0
0
0
0
0
0
0
0
0
0
0
0
0
0
0
0
0
0
0
0
0
0
0
0
0
0
0
0
0
0
0
0
0
SCALARS damp_numerical double 1
LOOKUP_TABLE default
0.5
0.5
0.5
0.5
0.5
0.5
0.5
0.5
0.5
0.5
0.5
0.5
0.5
0.5
0.5
0.5
0.5
0.5
0.5
0.5
0.5
0.5
0.5
0.5
0.5
0.5
0.5
0.5
0.5
0.5
0.5
0.5
0.5
0.5
0.5
0.5
0.5
0.5
0.5
0.5
0.5
0.5
0.5
0.5
0.5
0.5
0.5
0.5
0.5
0.5
0.5
0.5
0.5
0.5
0.5
0.5
0.5
0.5
0.5
0.5
0.5
0.5
0.5
0.5
0.5
0.5
0.5
0.5
0.5
0.5
0.5
0.5
0.5
0.5
0.5
0.5
0.5
0.5
0.5
0.5
0.5
0.5
0.5
0.5
0.5
0.5
0.5
0.5
0.5
0.5
0.5
0.5
0.5
0.5
0.5
0.5
0.5
0.5
0.5
0.5
0.5
0.5
0.5
0.5
0.5
0.5
0.5
0.5
0.5
0.5
0.5
0.5
0.5
0.5
0.5
0.5
0.5
0.5
0.5
0.5
0.5
0.5
0.5
0.5
0.5
0.5
0.5
0.5
0.5
0.5
0.5
0.5
0.5
0.5
0.5
0.5
0.5
0.5
0.5
0.5
0.5
0.5
0.5
0.5
0.5
0.5
0.5
0.5
0.5
0.5
0.5
0.5
0.5
0.5
0.5
0.5
0.5
0.5
0.5
0.5
0.5
0.5
0.5
0.5
0.5
0.5
0.5
0.5
0.5
0.5
0.5
0.5
0.5
0.5
0.5
0.5
0.5
0.5
0.5
0.5
0.5
0.5
0.5
0.5
0.5
0.5
0.5
0.5
0.5
0.5
0.5
0.5
0.5
0.5
0.5
0.5
0.5
0.5
0.5
0.5
0.5
0.5
0.5
0.5
0.5
0.5
0.5
0.5
0.5
0.5
0.5
0.5
0.5
0.5
0.5
0.5
0.5
0.5
0.5
0.5
0.5
0.5
0.5
0.5
0.5
0.5
0.5
0.5
0.5
0.5
0.5
0.5
0.5
0.5
0.5
0.5
0.5
0.5
0.5
0.5
0.5
0.5
0.5
0.5
0.5
0.5
0.5
0.5
0.5
0.5
0.5
0.5
0.5
0.5
0.5
0.5
0.5
0.5
0.5
0.5
0.5
0.5
0.5
0.5
0.5
0.5
0.5
0.5
0.5
0.5
0.5
0.5
0.5
0.5
0.5
0.5
0.5
0.5
0.5
0.5
0.5
0.5
0.5
0.5
0.5
0.5
0.5
0.5
0.5
0.5
0.5
0.5
0.5
0.5
0.5
0.5
0.5
0.5
0.5
0.5
0.5
0.5
0.5
0.5
0.5
0.5
0.5
0.5
0.5
0.5
0.5
0.5
0.5
0.5
0.5
0.5
0.5
0.5
0.5
0.5
0.5
0.5
0.5
0.5
0.5
0.5
0.5
0.5
0.5
0.5
0.5
0.5
0.5
0.5
0.5
0.5
0.5
0.5
0.5
0.5
0.5
0.5
0.5
0.5
0.5
0.5
0.5
0.5
0.5
0.5
0.5
0.5
0.5
0.5
0.5
0.5
0.5
0.5
0.5
0.5
0.5
0.5
0.5
0.5
0.5
0.5
0.5
0.5
0.5
0.5
0.5
0.5
0.5
0.5
0.5
0.5
0.5
0.5
0.5
0.5
0.5
0.5
0.5
0.5
0.5
0.5
0.5
0.5
0.5
0.5
0.5
0.5
0.5
0.5
0.5
0.5
0.5
0.5
0.5
0.5
0.5
0.5
0.5
0.5
0.5
0.5
0.5
0.5
0.5
0.5
0.5
0.5
0.5
0.5
0.5
0.5
0.5
0.5
0.5
0.5
0.5
0.5
0.5
0.5
0.5
0.5
0.5
0.5
0.5
0.5
0.5
0.5
0.5
0.5
0.5
0.5
0.5
0.5
0.5
0.5
0.5
0.5
0.5
0.5
0.5
0.5
0.5
0.5
0.5
0.5
0.5
0.5
0.5
0.5
0.5
0.5
0.5
0.5
0.5
0.5
0.5
0.5
0.5
0.5
0.5
0.5
0.5
0.5
0.5
0.5
0.5
0.5
0.5
0.5
0.5
0.5
0.5
0.5
0.5
0.5
0.5
0.5
0.5
0.5
0.5
0.5
0.5
0.5
0.5
0.5
0.5
0.5
0.5
0.5
0.5
0.5
0.5
0.5
0.5
0.5
SCALARS quat double 4
LOOKUP_TABLE default
0.768603 -0.00134764 -0.0693696 0.635952 
0.791858 0.102608 0.602024 0.000683166 
0.990102 0.0769672 -0.0431927 -0.109127 
-0.367881 -0.503811 -0.530545 -0.573898 
0.125883 0.53372 -0.539721 0.638747 
0.79303 -0.365477 -0.121396 0.472009 
0.343368 -0.773061 -0.137631 0.515299 
0.886485 0.0382558 0.380477 0.260611 
-0.0969694 0.44179 0.891537 -0.024093 
0.0408279 0.0916178 0.0353317 0.994329 
0.854101 0.167522 -0.0593408 0.4888 
0.0617941 -0.931227 -0.0713574 -0.352004 
0.180994 0.428388 -0.0737724 0.882203 
0.606988 0.695088 0.37103 -0.103706 
0.321731 0.828492 -0.20866 0.408106 
0.991283 0.0944753 -0.0677836 0.0619527 
0.716259 0.0526202 -0.0100001 0.695776 
0.993142 0.0348124 -0.0403302 0.104073 
0.978974 0.120005 -0.107261 0.125313 
-0.725447 0.224456 0.645905 0.078438 
0.824065 0.198108 0.483736 -0.218334 
-0.260545 0.890963 -0.221958 0.298389 
0.808757 -0.245267 -0.444213 -0.297372 
0.49797 0.753702 -0.416201 -0.103608 
0.984933 0.0869027 -0.0945287 0.115842 
0.816149 0.159917 -0.212482 0.51301 
-0.724255 0.56199 -0.378244 0.128661 
0.969233 0.120175 -0.189801 -0.100604 
0.859224 -0.220745 -0.421765 0.187404 
-0.161917 0.380608 -0.331022 0.848142 
0.649481 0.479733 0.480734 0.341943 
-0.125258 -0.612193 -0.528099 -0.575014 
0.26334 0.003421 -0.909348 0.322068 
0.0827436 0.116852 0.0845188 0.986081 
0.534421 0.756904 0.148954 -0.345403 
0.524519 -0.421516 -0.00838488 0.739685 
-0.195529 0.52651 -0.425508 0.709576 
0.277944 0.238004 0.238772 0.899494 
0.74342 -0.620814 -0.220011 0.116242 
0.584839 0.607318 -0.14058 -0.519004 
0.924276 0.15734 -0.189044 0.291924 
0.69165 0.18494 -0.0612559 0.695461 
0.98459 -0.14099 -0.100085 -0.0262281 
0.00123633 0.836641 0.520364 -0.171029 
0.803673 -0.52552 -0.202261 -0.192428 
0.263142 0.272941 -0.651672 0.65695 
0.546779 -0.157605 0.117867 -0.813819 
-0.956446 0.206421 -0.159497 0.131003 
0.360262 0.695826 -0.541852 0.304031 
-0.86865 0.477864 0.0683474 -0.111457 
0.907402 0.348895 -0.187813 -0.140071 
-0.249523 0.451575 0.827195 -0.222636 
0.725393 0.0506295 0.618511 -0.2978 
-0.617197 0.441456 -0.651022 0.0188364 
-0.471911 0.551658 0.385201 -0.569731 
-0.360338 0.591516 0.709038 -0.132405 
-0.163542 0.201352 0.917301 -0.302109 
0.0361162 -0.0484588 -0.889375 -0.453167 
-0.185103 0.116579 0.719905 -0.658698 
0.334715 -0.924177 -0.148691 0.108414 
-0.405259 0.305115 0.696044 -0.508126 
-0.884907 -0.108201 0.07815 0.446234 
-0.300806 -0.707644 0.136968 0.624496 
0.158293 0.169456 0.960916 0.151222 
-0.0763786 0.0339068 0.993202 -0.0810298 
0.899058 0.289906 -0.31738 -0.0831841 
-0.0246546 -0.962263 -0.185975 0.197119 
0.957395 -0.175759 -0.150506 0.172775 
0.89211 0.0533211 0.401049 -0.20114 
-0.960323 0.0544942 -0.018058 -0.272918 
0.68375 -0.638063 -0.210126 0.284971 
-0.632091 -0.647113 -0.397051 -0.1551 
0.233825 0.377349 -0.00879305 -0.896023 
-0.646364 0.669148 -0.329245 -0.161403 
0.95293 -0.213553 0.0102922 -0.214973 
0.953067 0.082927 -0.0831364 -0.279059 
0.632477 -0.0677987 -0.664643 0.391953 
0.88506 -0.338195 0.318757 -0.0261979 
-0.694298 -0.21703 -0.0126166 0.686067 
-0.590727 0.334592 -0.0559585 -0.732092 
0.993105 0.0151754 0.102665 0.0545185 
-0.246068 0.90543 0.00703148 0.345828 
0.740119 -0.0293197 0.670601 -0.040728 
-0.23627 0.843814 -0.279037 0.392802 
0.939557 -0.298449 0.153882 -0.0669335 
0.784485 -0.549882 -0.266912 0.10474 
-0.070906 -0.457668 -0.0912152 -0.881585 
0.73492 0.381616 0.0492802 -0.55842 
0.332269 0.927878 0.0595668 -0.158404 
-0.261435 0.573328 -0.699232 0.337672 
0.814516 -0.347235 0.415489 -0.208229 
-0.832097 0.340466 -0.41245 0.14691 
0.869593 -0.034272 -0.433789 0.233369 
0.763842 -0.4957 0.406328 0.0756693 
0.792313 0.0470704 0.33571 -0.50727 
0.27729 -0.584783 -0.524332 -0.553367 
0.195214 -0.780387 0.555364 0.210851 
0.362839 -0.0235121 -0.885632 0.288878 
-0.560417 0.609359 0.284977 -0.483118 
0.97887 -0.156773 -0.0327616 -0.127133 
0.831744 -0.150566 -0.0779531 -0.528635 
0.442756 0.443286 0.752108 0.204446 
-0.193732 0.431698 -0.880783 0.018059 
-0.530887 -0.504132 -0.673634 0.101133 
-0.201412 -0.0833087 -0.541436 0.811998 
0.86574 0.249846 0.153323 0.405664 
-0.865887 0.371178 0.276581 -0.189654 
0.527398 0.679946 0.421146 0.286636 
0.887255 0.278336 -0.131232 -0.343636 
-0.0774221 0.246811 -0.950199 0.173815 
-0.0559503 -0.560887 -0.621207 0.544405 
-0.507421 -0.176592 0.777429 0.327022 
-0.0879005 -0.234488 0.112513 -0.961577 
0.853927 -0.242952 0.391741 0.2415 
-0.289499 0.035625 0.0235278 0.956226 
0.904635 -0.357106 0.206879 -0.106352 
0.211289 -0.734618 0.59839 0.240046 
0.380329 -0.0846428 -0.454585 0.80096 
0.853489 0.0136122 0.173482 0.491197 
0.186331 0.132448 -0.807292 0.544076 
0.0401079 0.373535 0.304271 -0.875375 
-0.152564 -0.297627 -0.788472 0.516193 
0.31611 -0.464785 -0.422833 -0.710818 
-0.899196 -0.254561 -0.252158 0.25112 
0.792044 -0.565743 0.01292 0.228986 
0.779818 0.313673 -0.509307 -0.184661 
0.460467 0.572396 0.549477 -0.398005 
0.529987 0.272962 0.200032 -0.777556 
-0.409362 0.122059 0.899209 -0.0945898 
0.46275 -0.402343 0.69435 0.376643 
-0.0387266 0.187509 0.944448 -0.267132 
-0.964521 0.0319858 -0.126607 -0.229447 
-0.162668 -0.631527 -0.728507 -0.209736 
0.245859 0.185491 -0.951237 -0.0171629 
0.134673 -0.915093 0.235709 0.298177 
0.0777418 -0.162703 0.761447 0.622641 
0.162662 0.6815 0.318373 0.638543 
-0.752166 -0.621576 0.105698 -0.191617 
0.318471 0.923345 -0.161023 -0.141713 
-0.0942067 0.81338 -0.574022 0.00611939 
-0.432235 0.140667 -0.87445 0.169478 
0.328881 -0.412567 0.187877 0.828449 
-0.0742609 0.525845 -0.227437 0.816239 
0.941238 -0.269167 -0.183943 0.0882282 
0.0100049 -0.520224 -0.785876 -0.334165 
-0.369901 -0.855806 0.213138 0.292133 
0.549405 -0.62606 0.384445 -0.398001 
0.246822 -0.60671 0.0982872 -0.749214 