# vtk DataFile Version 2.0
Generated by NetDEM
ASCII 
DATASET POLYDATA
POINTS 500 double
-0.418605 -0.407827 -0.463814 
-0.448983 -0.195445 -0.450022 
-0.411224 -0.00665261 -0.464289 
-0.450005 0.110474 -0.450016 
-0.438147 0.345515 -0.450033 
-0.271047 -0.42966 -0.459142 
-0.30725 -0.212889 -0.45007 
-0.195022 -0.00942156 -0.450039 
-0.172899 0.172675 -0.463899 
-0.25375 0.365925 -0.463044 
-0.0561728 -0.396516 -0.460735 
-0.144994 -0.134328 -0.450071 
-0.0554116 -0.0870453 -0.450042 
0.0365096 0.179157 -0.452394 
-0.0301954 0.31956 -0.441496 
0.193005 -0.401641 -0.462899 
0.168222 -0.210463 -0.462954 
0.173152 -0.00713003 -0.462617 
0.160737 0.209012 -0.465068 
0.299869 0.402828 -0.416603 
0.450014 -0.40808 -0.450029 
0.430885 -0.303353 -0.450024 
0.336542 -0.0155217 -0.450007 
0.38033 0.0899273 -0.450014 
0.371574 0.439149 -0.465072 
-0.429509 -0.409193 -0.393386 
-0.450002 -0.269894 -0.383283 
-0.408999 -0.018438 -0.385723 
-0.449627 0.173886 -0.372693 
-0.449029 0.449738 -0.450054 
-0.334686 -0.40742 -0.405217 
-0.233245 -0.158951 -0.409966 
-0.154419 -0.0986147 -0.20335 
-0.304683 0.164382 -0.465038 
-0.147007 0.402889 -0.447656 
-0.0858485 -0.389284 -0.395856 
0.314211 -0.238628 -0.112465 
-0.0322609 -0.0133132 -0.303074 
0.0268137 0.259619 -0.450022 
0.119624 0.301566 -0.426514 
0.203605 -0.413746 -0.390223 
0.165311 -0.206345 -0.389393 
0.174942 0.0141775 -0.385461 
0.196486 0.112524 -0.456038 
0.284469 0.372331 -0.322644 
0.39149 -0.450013 -0.38065 
0.436389 -0.356474 -0.365509 
0.274794 -0.206363 -0.450007 
0.45003 0.139817 -0.398466 
0.424811 0.34008 -0.456387 
-0.434823 -0.440708 -0.326145 
-0.320869 -0.205496 -0.351322 
-0.314769 -0.0228033 -0.361722 
-0.290818 0.267555 -0.450018 
-0.449999 0.273493 -0.38172 
-0.181359 -0.374974 -0.451301 
0.198425 -0.329274 -0.241177 
-0.236505 -0.0608843 -0.1605 
-0.17713 0.0788591 -0.450136 
-0.348031 0.331783 -0.334363 
0.0431163 -0.439092 -0.449663 
0.208233 -0.283365 -0.120229 
0.208592 0.0665405 -0.194263 
-0.0374468 0.22268 -0.386997 
0.255326 0.331278 -0.463905 
0.201831 -0.435556 -0.31917 
0.051299 -0.0936781 -0.450048 
0.16216 0.0570546 -0.329368 
0.273501 0.0659095 -0.443647 
0.112164 0.138118 -0.398014 
0.301257 -0.449366 -0.450007 
0.378737 -0.217716 -0.450056 
0.381146 -0.108428 -0.450048 
0.449755 0.233913 -0.364661 
0.437478 0.255503 -0.459978 
-0.43418 -0.452837 -0.243834 
-0.177052 -0.170345 -0.328055 
-0.240965 -0.0046823 -0.351893 
-0.274062 0.092923 -0.4041 
-0.360346 0.140892 -0.339762 
-0.158802 -0.44814 -0.391617 
-0.129363 -0.0555699 -0.390427 
-0.241988 0.0478794 -0.218799 
-0.0554 0.126831 -0.442951 
-0.355132 0.378039 -0.406592 
0.0943886 -0.452582 -0.355627 
0.450001 -0.331328 -0.066596 
-0.185074 -0.245322 -0.436296 
0.0197622 0.0477714 -0.450111 
0.0668628 0.397382 -0.409105 
0.262607 -0.446999 -0.241046 
0.156593 -0.319159 -0.400694 
0.125269 0.0638506 -0.266431 
0.262493 0.175407 -0.444715 
0.145489 0.450017 -0.450021 
0.352843 -0.314216 -0.330309 
0.449995 -0.106863 -0.377562 
0.386398 0.165786 -0.325778 
0.330699 0.307673 -0.412739 
0.432634 0.368464 -0.376158 
-0.389417 -0.439629 -0.16874 
-0.369154 -0.362873 -0.116026 
-0.294729 -0.0405732 -0.270733 
-0.370731 0.0674891 -0.406846 
-0.45001 0.42852 -0.352383 
-0.26457 -0.438792 -0.363295 
-0.0791687 -0.133206 -0.352318 
-0.245886 0.0356639 -0.119639 
-0.0070744 -0.0225266 -0.393542 
-0.424818 0.243414 -0.463268 
0.0823783 -0.342202 -0.440657 
0.355388 -0.211649 -0.0254393 
0.0223337 -0.119048 -0.347369 
0.0322614 0.0438507 -0.354849 
-0.00258979 0.437536 -0.464638 
0.302819 -0.387981 -0.20862 
0.260658 -0.321933 -0.385421 
0.0425756 0.0709908 -0.254596 
0.238891 0.23449 -0.379805 
0.349205 0.450026 -0.264117 
0.340176 -0.410352 -0.304534 
0.450017 -0.208815 -0.380517 
0.45 -0.0326275 -0.450007 
0.33342 0.208686 -0.398906 
0.397425 0.450236 -0.370657 
-0.461844 -0.452413 -0.122266 
-0.319528 -0.139619 -0.276101 
-0.450963 -0.0309772 -0.316533 
-0.245974 0.187238 -0.386128 
-0.310974 0.445103 -0.350707 
-0.160619 -0.376446 -0.333989 
-0.0826783 -0.212923 -0.446529 
-0.190485 -0.157845 -0.131283 
-0.135782 0.146661 -0.396087 
-0.230381 0.327773 -0.394754 
-0.0938746 -0.305224 -0.450769 
0.293307 -0.320995 -0.0597738 
0.450001 0.0523565 -0.156898 
0.0495227 0.119561 -0.326909 
-0.11239 0.312943 -0.400489 
0.175586 -0.427489 -0.221119 
0.238191 -0.142655 -0.389048 
0.110875 -0.0225649 -0.206393 
0.197259 0.307476 -0.33747 
0.203607 0.384602 -0.394997 
0.44999 -0.445729 -0.299198 
0.33636 -0.176635 -0.369369 
0.250446 -0.0667111 -0.450014 
0.449975 0.0538905 -0.347312 
0.439203 0.400611 -0.296018 
-0.443909 -0.456898 -0.00139938 
-0.229174 -0.171077 -0.242715 
-0.422947 -0.115384 -0.403577 
-0.207529 0.273455 -0.328545 
-0.333944 0.233554 -0.366465 
-0.139196 -0.297398 -0.315708 
0.129923 -0.450003 -0.0853559 
-0.301741 0.358129 -0.145614 
-0.107036 0.276333 -0.320146 
-0.221634 0.448149 -0.413597 
-0.00214411 -0.339154 -0.347975 
0.124684 -0.230432 -0.135081 
-0.16607 -0.0715753 -0.298851 
0.0226695 0.195241 -0.282914 
0.00781908 0.294345 -0.340072 
0.0804115 -0.416877 -0.270741 
0.134818 -0.0966751 -0.397433 
0.257286 -0.118502 -0.256587 
0.228414 0.183575 -0.320237 
0.142229 0.44959 -0.350093 
0.391047 -0.225715 -0.301562 
0.346768 -0.0754106 -0.362148 
0.322874 0.0630984 -0.372699 
0.399516 0.299866 -0.308696 
0.445704 0.375175 -0.206594 
-0.329089 -0.442099 -0.044834 
-0.447889 -0.097509 -0.257599 
-0.353509 0.0114809 -0.232458 
-0.447846 0.0633128 -0.341185 
-0.419466 0.260103 -0.287472 
-0.270034 -0.304877 -0.44717 
-0.177128 -0.277142 -0.221779 
-0.144363 0.396338 -0.0577059 
-0.128574 0.188857 -0.332614 
-0.143332 0.441464 -0.338786 
0.00861283 -0.435026 -0.355013 
0.0141265 -0.101526 -0.249262 
0.0166839 -0.223642 -0.450009 
-0.0341179 0.269754 -0.238514 
-0.0060434 0.413207 -0.368975 
0.0785963 -0.427181 -0.167841 
0.0950533 -0.0423791 -0.327291 
0.295025 -0.16166 -0.17736 
0.203367 0.13935 -0.258371 
0.249402 0.449802 -0.270071 
0.450009 -0.310125 -0.277966 
0.450017 -0.146377 -0.285725 
0.364487 0.0417806 -0.284309 
0.31609 0.24478 -0.306906 
0.38155 0.426907 -0.187694 
-0.24075 -0.443764 -0.103727 
-0.442376 0.229841 -0.194997 
-0.297081 0.198506 -0.177465 
-0.193266 0.0777063 -0.339813 
-0.382913 0.449999 -0.281447 
-0.221831 -0.350626 -0.235041 
-0.0444269 -0.264587 -0.29023 
0.0141372 -0.24461 -0.211675 
-0.161543 0.115537 -0.248356 
-0.168096 0.35318 -0.324754 
-0.0432062 -0.390176 -0.287501 
-0.147826 -0.138357 0.357425 
-0.0273588 0.204289 -0.158475 
-0.0596529 0.121252 -0.288357 
0.110324 0.36362 -0.317134 
0.270035 -0.431516 -0.126683 
0.216489 -0.197675 -0.307381 
0.296319 -0.10647 -0.107228 
0.151232 0.229814 -0.280335 
0.216437 0.33676 -0.243619 
0.416036 -0.382758 -0.218268 
0.446375 -0.229935 -0.218377 
0.437514 -0.036882 -0.307246 
0.305131 0.122234 -0.286682 
0.406487 0.406582 -0.115173 
-0.243889 -0.332111 -0.142867 
-0.415562 -0.335179 -0.315829 
-0.428406 0.3229 -0.106036 
-0.340669 0.319828 -0.0383443 
-0.446255 0.432445 0.00412074 
-0.139054 -0.415489 -0.243333 
-0.055762 0.134449 -0.0505828 
-0.259741 -0.177848 -0.00999221 
-0.186458 0.177156 -0.177423 
-0.159936 0.336785 -0.216116 
-0.0565219 -0.385083 -0.20086 
-0.136999 -0.141464 0.012225 
-0.114501 -0.0292146 -0.143451 
0.00138855 0.112587 -0.186091 
0.0248055 0.446028 -0.274997 
0.298216 -0.323722 -0.157348 
0.25391 -0.29758 -0.302733 
0.355295 -0.0510391 -0.0563738 
0.157355 0.26992 -0.206097 
0.206479 0.408982 -0.118976 
0.365598 -0.450042 -0.16416 
0.448676 -0.198261 -0.058843 
0.335981 0.132637 0.0135604 
0.450011 0.151934 -0.165812 
0.428099 0.392004 -0.0335079 
-0.298608 -0.317547 -0.347877 
-0.117002 -0.204929 -0.255977 
-0.322926 -0.0264803 -0.137476 
-0.220432 0.21198 -0.250756 
-0.425083 0.444905 -0.190962 
-0.246619 -0.429128 -0.211363 
0.10015 -0.287801 -0.303528 
-0.309898 0.257827 -0.112392 
-0.245973 0.30227 -0.184604 
-0.154029 0.43946 -0.224246 
0.0182003 -0.379864 -0.151636 
0.450011 -0.392392 0.0307512 
0.0805559 0.437776 -0.17128 
-0.0713583 0.406389 -0.315965 
-0.0350813 0.447414 -0.211284 
0.356425 -0.3973 -0.0754842 
0.375079 -0.0987934 -0.155837 
0.197131 -0.0315948 -0.274608 
0.224441 0.198255 -0.186048 
0.0866082 0.236601 -0.366352 
0.358598 -0.293788 -0.232468 
0.356932 -0.147574 -0.249292 
0.449334 0.0836457 -0.251856 
0.448409 0.218968 -0.265826 
0.409815 0.449896 0.0157693 
-0.335567 -0.396226 0.0335446 
-0.140132 -0.343743 -0.113639 
-0.432515 -0.112237 -0.173464 
-0.450022 0.0948435 -0.161521 
-0.347878 0.196892 -0.2579 
-0.145534 -0.441621 -0.1485 
-0.0589233 -0.297615 -0.155732 
-0.233693 0.448563 -0.287293 
-0.281376 0.314103 -0.275583 
-0.204607 0.434502 -0.133123 
0.0399383 -0.406514 -0.0659907 
-0.113921 0.449987 0.156798 
0.0276504 0.183871 -0.0775039 
-0.0689361 0.309314 -0.177965 
0.00721504 0.3716 -0.161665 
0.265863 -0.424379 -0.0156742 
0.0256618 -0.0838011 0.0354315 
0.146568 -0.0346626 -0.120615 
0.286132 0.176636 -0.126387 
0.076339 0.24924 -0.13798 
0.40731 -0.283056 -0.143185 
0.450011 -0.157122 -0.149939 
0.333836 -0.0516414 -0.265887 
0.450002 0.274256 -0.182525 
0.302125 0.413162 -0.0648531 
-0.284989 -0.35268 -0.0522524 
-0.414337 0.0019637 -0.171396 
-0.391752 -0.299003 -0.0494495 
-0.42815 0.135568 -0.266432 
-0.449739 0.450012 -0.0942213 
-0.156484 -0.428017 -0.048311 
-0.143392 -0.32158 -0.0160896 
-0.284966 0.0882007 -0.300516 
-0.134012 0.275823 -0.102513 
-0.248207 0.378974 -0.0579433 
-0.0210377 -0.42577 -0.00394137 
-0.40791 -0.175224 -0.312443 
0.00473272 -0.00404713 -0.210634 
-0.0423405 0.29393 -0.0698343 
-0.0100017 0.441579 -0.108927 
0.15109 -0.39507 -0.000545863 
0.4539 0.00428582 0.0262519 
0.0819066 -0.0305379 -0.0456251 
0.304458 0.335618 -0.187533 
0.27886 0.450002 -0.174451 
0.374111 -0.450003 0.000483759 
0.443232 -0.0249455 0.119144 
0.248899 -0.0644801 -0.344249 
0.350885 0.251482 -0.178354 
0.442178 0.448416 0.103247 
-0.332056 -0.256116 0.187449 
-0.385921 -0.269028 -0.14622 
-0.423804 0.102391 -0.0791786 
-0.386422 0.311788 -0.18263 
-0.449817 0.375994 -0.26729 
-0.167732 -0.43275 0.0719421 
-0.0546396 -0.152731 -0.19779 
-0.221103 0.288581 -0.0570436 
-0.101337 0.378763 -0.144501 
-0.0772568 0.434706 -0.0218993 
-0.0876572 -0.444393 0.0477586 
0.0777415 -0.167474 -0.209102 
-0.0648906 0.0658417 -0.122787 
0.0293254 0.249862 -0.0128048 
0.00850825 0.423023 -0.0318177 
0.135425 -0.332436 -0.0647415 
0.175974 -0.188648 -0.22129 
0.130789 0.151395 -0.160954 
0.312267 0.221691 -0.0414986 
0.174155 0.450013 -0.204252 
0.450012 -0.416871 -0.122061 
0.327182 -0.270545 0.0502683 
0.414146 -0.0252746 -0.210713 
0.372154 0.166646 -0.226816 
0.424691 0.283166 0.294823 
-0.422416 -0.385878 0.0839665 
-0.450004 -0.215673 -0.231263 
-0.365863 0.216865 -0.0607995 
-0.449201 0.0649271 0.0136847 
-0.449992 0.197186 -0.100773 
-0.222468 -0.381133 0.0195757 
-0.275825 -0.118658 -0.0889508 
-0.320037 -0.117358 -0.178628 
-0.187423 0.361438 0.0291816 
-0.124776 0.398441 0.0609367 
0.04785 -0.179048 -0.0990589 
-0.149295 -0.244665 -0.103628 
0.224614 0.139322 -0.0445113 
0.104608 0.30833 0.00427958 
-0.022257 0.438866 0.0607684 
0.0685022 -0.211546 0.0368712 
0.458407 -0.0867404 -0.0764401 
0.278752 0.0612237 0.00848135 
0.195174 0.223103 -0.0878708 
0.0850049 0.335675 0.13902 
0.398236 -0.0743818 0.0314725 
0.447917 -0.269134 0.0116819 
0.369987 0.0133915 -0.111373 
0.429195 0.113866 -0.0756626 
0.328593 0.320431 -0.0912855 
-0.42688 -0.176184 -0.119254 
-0.450001 -0.255334 0.0123699 
-0.392482 -0.00389436 -0.077046 
-0.443279 0.301647 0.105174 
-0.338429 0.449441 0.0298076 
-0.23716 -0.307092 0.0820259 
-0.271027 -0.276866 -0.00179358 
-0.326548 0.0638099 -0.0288669 
-0.122057 0.218475 -0.0307071 
-0.124312 0.192368 0.05759 
0.0176167 -0.342527 0.0881301 
-0.121652 -0.10629 -0.0801131 
0.116704 0.115721 -0.0688398 
-0.15657 0.108753 -0.117306 
0.0419114 0.414451 0.138275 
0.0366891 -0.289358 -0.119016 
0.291536 -0.0712923 0.0297666 
0.272525 0.023779 -0.0673526 
0.186095 0.280527 -0.00866684 
0.157044 0.322488 -0.133153 
0.330565 -0.335853 0.125896 
0.259485 -0.174848 -0.0497467 
0.416274 0.187672 -0.00941516 
0.414805 0.231159 -0.0994491 
0.449989 0.265108 0.144964 
-0.335303 -0.359067 0.123302 
-0.338681 -0.219564 -0.219169 
-0.448015 -0.055857 -0.00586277 
-0.44895 0.131659 0.198169 
-0.279777 0.359615 0.0396567 
-0.0568848 -0.182189 -0.107801 
-0.17877 -0.232317 0.0118121 
-0.233239 0.0188495 -0.0218961 
-0.291175 0.216231 0.0181153 
-0.208484 0.407207 0.122675 
0.21172 -0.0582207 -0.0710124 
0.00383223 -0.0858773 -0.151033 
-0.0976281 -0.032844 0.190976 
-0.0068129 0.244316 0.0824562 
-0.0656928 0.350726 0.124539 
0.303851 -0.441624 0.101219 
0.327893 -0.213832 0.137247 
0.183159 0.0424322 -0.109314 
0.252661 0.289877 0.047894 
0.24218 0.44991 0.0112143 
0.444139 -0.163143 0.0346609 
0.324942 0.391468 0.0444246 
0.449538 0.0895268 0.0192099 
0.428891 0.162428 0.0865156 
0.388446 0.370454 0.159593 
-0.403556 -0.399961 0.17096 
-0.441135 -0.292936 0.179951 
-0.198858 -0.0583834 -0.0102046 
-0.431563 0.264275 -0.0073433 
-0.391364 0.356904 0.0399169 
-0.208422 -0.393263 0.124164 
-0.240209 -0.0219595 0.325289 
-0.043791 -0.0063789 -0.0569546 
-0.28954 0.148745 -0.0728137 
-0.284551 0.399928 0.19907 
0.200865 -0.415387 0.0945874 
0.0926097 -0.136166 -0.028466 
0.0370186 0.0546402 -0.0735449 
-0.0897308 0.109486 0.10794 
-0.0588685 0.435667 0.229749 
0.308181 -0.397206 0.210354 
0.206792 -0.11085 0.0384515 
0.0901798 0.198266 0.0446279 
0.272773 0.168228 0.29512 
0.158292 0.416406 -0.0316804 
0.403923 -0.449496 0.0986755 
0.335406 -0.165561 0.0610136 
-0.0629219 -0.0106429 0.346636 
0.391121 0.200189 0.171075 
0.353335 0.451249 0.205532 
-0.438911 -0.450147 0.215969 
-0.381814 0.0407153 0.185171 
-0.402363 0.00254835 0.0665905 
-0.424686 0.162131 -0.00965723 
-0.449955 0.416445 0.102728 
-0.300024 -0.451597 0.142904 
-0.240872 -0.160186 0.0866055 
-0.2028 0.0220196 0.0733794 
-0.378891 0.0991191 0.310291 
-0.422447 0.42191 0.289374 
0.183934 -0.356398 0.319792 
-0.0454422 -0.14797 -0.0305739 
-0.0869866 0.0671685 0.0164658 
0.0225023 0.324667 0.0572037 
0.0135542 0.334573 0.211914 
0.197484 -0.244182 -0.0302393 
0.224252 -0.239953 0.220792 
0.210251 -0.00599553 0.0709458 
0.196463 0.175337 0.0452812 
0.0840703 0.423995 0.0348596 
0.407405 -0.380857 0.171369 
0.44996 -0.162047 0.134477 
0.35256 0.0106112 0.057693 
0.280565 0.169536 0.198735 
0.448108 0.353676 0.22511 
-0.358344 -0.349555 0.251326 
-0.198756 -0.0626822 0.224332 
-0.419623 -0.00123345 0.32865 
-0.381468 0.224265 0.227912 
-0.369325 0.438037 0.157751 
-0.196246 -0.253326 0.133162 
-0.202176 -0.203993 0.293144 
-0.0926449 0.00244836 0.097563 
-0.310823 0.252888 0.327003 
-0.225264 0.242196 0.176813 
-0.0290525 -0.10409 0.259606 
0.00169228 -0.25411 -0.0338978 
-0.0127181 0.00358888 0.0375204 
0.225126 -0.101928 0.201671 
0.000533581 0.442843 0.288372 
0.21043 -0.397316 0.214011 
0.436215 -0.328451 0.318813 
0.322912 0.0430131 0.263349 
0.142479 0.26651 0.197619 
0.181402 0.364697 0.0516446 
0.394788 -0.407241 0.266998 
0.449246 -0.18273 0.310373 
0.383682 -0.0318741 0.199189 
0.383188 0.12929 0.339416 
0.273116 0.430416 0.281691 
VERTICES 500 1000
1 0
1 1
1 2
1 3
1 4
1 5
1 6
1 7
1 8
1 9
1 10
1 11
1 12
1 13
1 14
1 15
1 16
1 17
1 18
1 19
1 20
1 21
1 22
1 23
1 24
1 25
1 26
1 27
1 28
1 29
1 30
1 31
1 32
1 33
1 34
1 35
1 36
1 37
1 38
1 39
1 40
1 41
1 42
1 43
1 44
1 45
1 46
1 47
1 48
1 49
1 50
1 51
1 52
1 53
1 54
1 55
1 56
1 57
1 58
1 59
1 60
1 61
1 62
1 63
1 64
1 65
1 66
1 67
1 68
1 69
1 70
1 71
1 72
1 73
1 74
1 75
1 76
1 77
1 78
1 79
1 80
1 81
1 82
1 83
1 84
1 85
1 86
1 87
1 88
1 89
1 90
1 91
1 92
1 93
1 94
1 95
1 96
1 97
1 98
1 99
1 100
1 101
1 102
1 103
1 104
1 105
1 106
1 107
1 108
1 109
1 110
1 111
1 112
1 113
1 114
1 115
1 116
1 117
1 118
1 119
1 120
1 121
1 122
1 123
1 124
1 125
1 126
1 127
1 128
1 129
1 130
1 131
1 132
1 133
1 134
1 135
1 136
1 137
1 138
1 139
1 140
1 141
1 142
1 143
1 144
1 145
1 146
1 147
1 148
1 149
1 150
1 151
1 152
1 153
1 154
1 155
1 156
1 157
1 158
1 159
1 160
1 161
1 162
1 163
1 164
1 165
1 166
1 167
1 168
1 169
1 170
1 171
1 172
1 173
1 174
1 175
1 176
1 177
1 178
1 179
1 180
1 181
1 182
1 183
1 184
1 185
1 186
1 187
1 188
1 189
1 190
1 191
1 192
1 193
1 194
1 195
1 196
1 197
1 198
1 199
1 200
1 201
1 202
1 203
1 204
1 205
1 206
1 207
1 208
1 209
1 210
1 211
1 212
1 213
1 214
1 215
1 216
1 217
1 218
1 219
1 220
1 221
1 222
1 223
1 224
1 225
1 226
1 227
1 228
1 229
1 230
1 231
1 232
1 233
1 234
1 235
1 236
1 237
1 238
1 239
1 240
1 241
1 242
1 243
1 244
1 245
1 246
1 247
1 248
1 249
1 250
1 251
1 252
1 253
1 254
1 255
1 256
1 257
1 258
1 259
1 260
1 261
1 262
1 263
1 264
1 265
1 266
1 267
1 268
1 269
1 270
1 271
1 272
1 273
1 274
1 275
1 276
1 277
1 278
1 279
1 280
1 281
1 282
1 283
1 284
1 285
1 286
1 287
1 288
1 289
1 290
1 291
1 292
1 293
1 294
1 295
1 296
1 297
1 298
1 299
1 300
1 301
1 302
1 303
1 304
1 305
1 306
1 307
1 308
1 309
1 310
1 311
1 312
1 313
1 314
1 315
1 316
1 317
1 318
1 319
1 320
1 321
1 322
1 323
1 324
1 325
1 326
1 327
1 328
1 329
1 330
1 331
1 332
1 333
1 334
1 335
1 336
1 337
1 338
1 339
1 340
1 341
1 342
1 343
1 344
1 345
1 346
1 347
1 348
1 349
1 350
1 351
1 352
1 353
1 354
1 355
1 356
1 357
1 358
1 359
1 360
1 361
1 362
1 363
1 364
1 365
1 366
1 367
1 368
1 369
1 370
1 371
1 372
1 373
1 374
1 375
1 376
1 377
1 378
1 379
1 380
1 381
1 382
1 383
1 384
1 385
1 386
1 387
1 388
1 389
1 390
1 391
1 392
1 393
1 394
1 395
1 396
1 397
1 398
1 399
1 400
1 401
1 402
1 403
1 404
1 405
1 406
1 407
1 408
1 409
1 410
1 411
1 412
1 413
1 414
1 415
1 416
1 417
1 418
1 419
1 420
1 421
1 422
1 423
1 424
1 425
1 426
1 427
1 428
1 429
1 430
1 431
1 432
1 433
1 434
1 435
1 436
1 437
1 438
1 439
1 440
1 441
1 442
1 443
1 444
1 445
1 446
1 447
1 448
1 449
1 450
1 451
1 452
1 453
1 454
1 455
1 456
1 457
1 458
1 459
1 460
1 461
1 462
1 463
1 464
1 465
1 466
1 467
1 468
1 469
1 470
1 471
1 472
1 473
1 474
1 475
1 476
1 477
1 478
1 479
1 480
1 481
1 482
1 483
1 484
1 485
1 486
1 487
1 488
1 489
1 490
1 491
1 492
1 493
1 494
1 495
1 496
1 497
1 498
1 499
POINT_DATA 500
SCALARS id int 1
LOOKUP_TABLE default
0
1
2
3
4
5
6
7
8
9
10
11
12
13
14
15
16
17
18
19
20
21
22
23
24
25
26
27
28
29
30
31
32
33
34
35
36
37
38
39
40
41
42
43
44
45
46
47
48
49
50
51
52
53
54
55
56
57
58
59
60
61
62
63
64
65
66
67
68
69
70
71
72
73
74
75
76
77
78
79
80
81
82
83
84
85
86
87
88
89
90
91
92
93
94
95
96
97
98
99
100
101
102
103
104
105
106
107
108
109
110
111
112
113
114
115
116
117
118
119
120
121
122
123
124
125
126
127
128
129
130
131
132
133
134
135
136
137
138
139
140
141
142
143
144
145
146
147
148
149
150
151
152
153
154
155
156
157
158
159
160
161
162
163
164
165
166
167
168
169
170
171
172
173
174
175
176
177
178
179
180
181
182
183
184
185
186
187
188
189
190
191
192
193
194
195
196
197
198
199
200
201
202
203
204
205
206
207
208
209
210
211
212
213
214
215
216
217
218
219
220
221
222
223
224
225
226
227
228
229
230
231
232
233
234
235
236
237
238
239
240
241
242
243
244
245
246
247
248
249
250
251
252
253
254
255
256
257
258
259
260
261
262
263
264
265
266
267
268
269
270
271
272
273
274
275
276
277
278
279
280
281
282
283
284
285
286
287
288
289
290
291
292
293
294
295
296
297
298
299
300
301
302
303
304
305
306
307
308
309
310
311
312
313
314
315
316
317
318
319
320
321
322
323
324
325
326
327
328
329
330
331
332
333
334
335
336
337
338
339
340
341
342
343
344
345
346
347
348
349
350
351
352
353
354
355
356
357
358
359
360
361
362
363
364
365
366
367
368
369
370
371
372
373
374
375
376
377
378
379
380
381
382
383
384
385
386
387
388
389
390
391
392
393
394
395
396
397
398
399
400
401
402
403
404
405
406
407
408
409
410
411
412
413
414
415
416
417
418
419
420
421
422
423
424
425
426
427
428
429
430
431
432
433
434
435
436
437
438
439
440
441
442
443
444
445
446
447
448
449
450
451
452
453
454
455
456
457
458
459
460
461
462
463
464
465
466
467
468
469
470
471
472
473
474
475
476
477
478
479
480
481
482
483
484
485
486
487
488
489
490
491
492
493
494
495
496
497
498
499
SCALARS type int 1
LOOKUP_TABLE default
0
0
0
0
0
0
0
0
0
0
0
0
0
0
0
0
0
0
0
0
0
0
0
0
0
0
0
0
0
0
0
0
0
0
0
0
0
0
0
0
0
0
0
0
0
0
0
0
0
0
0
0
0
0
0
0
0
0
0
0
0
0
0
0
0
0
0
0
0
0
0
0
0
0
0
0
0
0
0
0
0
0
0
0
0
0
0
0
0
0
0
0
0
0
0
0
0
0
0
0
0
0
0
0
0
0
0
0
0
0
0
0
0
0
0
0
0
0
0
0
0
0
0
0
0
0
0
0
0
0
0
0
0
0
0
0
0
0
0
0
0
0
0
0
0
0
0
0
0
0
0
0
0
0
0
0
0
0
0
0
0
0
0
0
0
0
0
0
0
0
0
0
0
0
0
0
0
0
0
0
0
0
0
0
0
0
0
0
0
0
0
0
0
0
0
0
0
0
0
0
0
0
0
0
0
0
0
0
0
0
0
0
0
0
0
0
0
0
0
0
0
0
0
0
0
0
0
0
0
0
0
0
0
0
0
0
0
0
0
0
0
0
0
0
0
0
0
0
0
0
0
0
0
0
0
0
0
0
0
0
0
0
0
0
0
0
0
0
0
0
0
0
0
0
0
0
0
0
0
0
0
0
0
0
0
0
0
0
0
0
0
0
0
0
0
0
0
0
0
0
0
0
0
0
0
0
0
0
0
0
0
0
0
0
0
0
0
0
0
0
0
0
0
0
0
0
0
0
0
0
0
0
0
0
0
0
0
0
0
0
0
0
0
0
0
0
0
0
0
0
0
0
0
0
0
0
0
0
0
0
0
0
0
0
0
0
0
0
0
0
0
0
0
0
0
0
0
0
0
0
0
0
0
0
0
0
0
0
0
0
0
0
0
0
0
0
0
0
0
0
0
0
0
0
0
0
0
0
0
0
0
0
0
0
0
0
0
0
0
0
0
0
0
0
0
0
0
0
0
0
0
0
0
0
0
0
0
0
0
0
0
0
0
0
0
0
0
0
0
0
0
0
0
0
0
0
0
0
0
0
0
0
0
0
0
0
0
0
0
0
0
0
0
0
0
0
0
0
0
0
0
0
0
0
0
0
0
0
0
0
0
0
0
0
0
0
0
0
0
0
SCALARS damp_viscous double 1
LOOKUP_TABLE default
0
0
0
0
0
0
0
0
0
0
0
0
0
0
0
0
0
0
0
0
0
0
0
0
0
0
0
0
0
0
0
0
0
0
0
0
0
0
0
0
0
0
0
0
0
0
0
0
0
0
0
0
0
0
0
0
0
0
0
0
0
0
0
0
0
0
0
0
0
0
0
0
0
0
0
0
0
0
0
0
0
0
0
0
0
0
0
0
0
0
0
0
0
0
0
0
0
0
0
0
0
0
0
0
0
0
0
0
0
0
0
0
0
0
0
0
0
0
0
0
0
0
0
0
0
0
0
0
0
0
0
0
0
0
0
0
0
0
0
0
0
0
0
0
0
0
0
0
0
0
0
0
0
0
0
0
0
0
0
0
0
0
0
0
0
0
0
0
0
0
0
0
0
0
0
0
0
0
0
0
0
0
0
0
0
0
0
0
0
0
0
0
0
0
0
0
0
0
0
0
0
0
0
0
0
0
0
0
0
0
0
0
0
0
0
0
0
0
0
0
0
0
0
0
0
0
0
0
0
0
0
0
0
0
0
0
0
0
0
0
0
0
0
0
0
0
0
0
0
0
0
0
0
0
0
0
0
0
0
0
0
0
0
0
0
0
0
0
0
0
0
0
0
0
0
0
0
0
0
0
0
0
0
0
0
0
0
0
0
0
0
0
0
0
0
0
0
0
0
0
0
0
0
0
0
0
0
0
0
0
0
0
0
0
0
0
0
0
0
0
0
0
0
0
0
0
0
0
0
0
0
0
0
0
0
0
0
0
0
0
0
0
0
0
0
0
0
0
0
0
0
0
0
0
0
0
0
0
0
0
0
0
0
0
0
0
0
0
0
0
0
0
0
0
0
0
0
0
0
0
0
0
0
0
0
0
0
0
0
0
0
0
0
0
0
0
0
0
0
0
0
0
0
0
0
0
0
0
0
0
0
0
0
0
0
0
0
0
0
0
0
0
0
0
0
0
0
0
0
0
0
0
0
0
0
0
0
0
0
0
0
0
0
0
0
0
0
0
0
0
0
0
0
0
0
0
0
0
0
0
0
0
0
0
0
0
0
0
0
0
0
0
0
0
0
0
0
0
0
0
0
0
0
0
0
0
0
0
0
0
0
0
0
0
0
0
0
0
0
0
SCALARS damp_numerical double 1
LOOKUP_TABLE default
0.5
0.5
0.5
0.5
0.5
0.5
0.5
0.5
0.5
0.5
0.5
0.5
0.5
0.5
0.5
0.5
0.5
0.5
0.5
0.5
0.5
0.5
0.5
0.5
0.5
0.5
0.5
0.5
0.5
0.5
0.5
0.5
0.5
0.5
0.5
0.5
0.5
0.5
0.5
0.5
0.5
0.5
0.5
0.5
0.5
0.5
0.5
0.5
0.5
0.5
0.5
0.5
0.5
0.5
0.5
0.5
0.5
0.5
0.5
0.5
0.5
0.5
0.5
0.5
0.5
0.5
0.5
0.5
0.5
0.5
0.5
0.5
0.5
0.5
0.5
0.5
0.5
0.5
0.5
0.5
0.5
0.5
0.5
0.5
0.5
0.5
0.5
0.5
0.5
0.5
0.5
0.5
0.5
0.5
0.5
0.5
0.5
0.5
0.5
0.5
0.5
0.5
0.5
0.5
0.5
0.5
0.5
0.5
0.5
0.5
0.5
0.5
0.5
0.5
0.5
0.5
0.5
0.5
0.5
0.5
0.5
0.5
0.5
0.5
0.5
0.5
0.5
0.5
0.5
0.5
0.5
0.5
0.5
0.5
0.5
0.5
0.5
0.5
0.5
0.5
0.5
0.5
0.5
0.5
0.5
0.5
0.5
0.5
0.5
0.5
0.5
0.5
0.5
0.5
0.5
0.5
0.5
0.5
0.5
0.5
0.5
0.5
0.5
0.5
0.5
0.5
0.5
0.5
0.5
0.5
0.5
0.5
0.5
0.5
0.5
0.5
0.5
0.5
0.5
0.5
0.5
0.5
0.5
0.5
0.5
0.5
0.5
0.5
0.5
0.5
0.5
0.5
0.5
0.5
0.5
0.5
0.5
0.5
0.5
0.5
0.5
0.5
0.5
0.5
0.5
0.5
0.5
0.5
0.5
0.5
0.5
0.5
0.5
0.5
0.5
0.5
0.5
0.5
0.5
0.5
0.5
0.5
0.5
0.5
0.5
0.5
0.5
0.5
0.5
0.5
0.5
0.5
0.5
0.5
0.5
0.5
0.5
0.5
0.5
0.5
0.5
0.5
0.5
0.5
0.5
0.5
0.5
0.5
0.5
0.5
0.5
0.5
0.5
0.5
0.5
0.5
0.5
0.5
0.5
0.5
0.5
0.5
0.5
0.5
0.5
0.5
0.5
0.5
0.5
0.5
0.5
0.5
0.5
0.5
0.5
0.5
0.5
0.5
0.5
0.5
0.5
0.5
0.5
0.5
0.5
0.5
0.5
0.5
0.5
0.5
0.5
0.5
0.5
0.5
0.5
0.5
0.5
0.5
0.5
0.5
0.5
0.5
0.5
0.5
0.5
0.5
0.5
0.5
0.5
0.5
0.5
0.5
0.5
0.5
0.5
0.5
0.5
0.5
0.5
0.5
0.5
0.5
0.5
0.5
0.5
0.5
0.5
0.5
0.5
0.5
0.5
0.5
0.5
0.5
0.5
0.5
0.5
0.5
0.5
0.5
0.5
0.5
0.5
0.5
0.5
0.5
0.5
0.5
0.5
0.5
0.5
0.5
0.5
0.5
0.5
0.5
0.5
0.5
0.5
0.5
0.5
0.5
0.5
0.5
0.5
0.5
0.5
0.5
0.5
0.5
0.5
0.5
0.5
0.5
0.5
0.5
0.5
0.5
0.5
0.5
0.5
0.5
0.5
0.5
0.5
0.5
0.5
0.5
0.5
0.5
0.5
0.5
0.5
0.5
0.5
0.5
0.5
0.5
0.5
0.5
0.5
0.5
0.5
0.5
0.5
0.5
0.5
0.5
0.5
0.5
0.5
0.5
0.5
0.5
0.5
0.5
0.5
0.5
0.5
0.5
0.5
0.5
0.5
0.5
0.5
0.5
0.5
0.5
0.5
0.5
0.5
0.5
0.5
0.5
0.5
0.5
0.5
0.5
0.5
0.5
0.5
0.5
0.5
0.5
0.5
0.5
0.5
0.5
0.5
0.5
0.5
0.5
0.5
0.5
0.5
0.5
0.5
0.5
0.5
0.5
0.5
0.5
0.5
0.5
0.5
0.5
0.5
0.5
0.5
0.5
0.5
0.5
0.5
0.5
0.5
0.5
0.5
0.5
0.5
0.5
0.5
0.5
0.5
0.5
0.5
0.5
0.5
0.5
0.5
0.5
0.5
0.5
0.5
0.5
0.5
0.5
0.5
0.5
0.5
0.5
SCALARS quat double 4
LOOKUP_TABLE default
0.964254 0.085566 -0.0479717 0.246152 
0.77909 0.161811 0.605555 0.0118118 
0.98639 0.089285 -0.100151 -0.0950385 
-0.372793 -0.469278 -0.561889 -0.570162 
0.0330494 0.720185 -0.373877 0.583487 
0.799466 -0.272083 -0.202931 0.495625 
0.149892 -0.358812 -0.229593 0.89223 
0.888819 0.0249565 0.313874 0.332957 
-0.116496 0.441967 0.889429 -0.00305616 
0.124083 0.0879871 -0.0267207 0.988002 
0.90815 -0.161901 -0.107945 0.370674 
0.190936 -0.897166 -0.301692 -0.260035 
0.108018 0.382315 -0.0103287 0.917639 
0.589976 0.722834 0.349081 -0.0870706 
0.353625 0.815796 -0.151593 0.431794 
0.995843 0.0832316 -0.0369915 -0.00103889 
0.642695 0.0423676 -0.0495264 0.763345 
0.983391 0.084224 -0.0179068 0.159776 
0.969854 0.114131 -0.0886064 0.196231 
-0.798158 0.143839 0.580551 0.0722054 
0.840128 0.107855 0.507405 -0.158403 
-0.332711 0.826882 -0.308767 0.332014 
0.804278 -0.202919 -0.504283 -0.240124 
0.559106 0.729079 -0.367685 -0.143711 
0.983942 0.105162 -0.0987073 0.105145 
0.940928 0.155013 -0.167969 0.249823 
-0.563041 0.742611 -0.281425 0.228721 
0.983287 0.153662 -0.0545613 -0.0809825 
0.536941 -0.491207 -0.42584 0.537652 
-0.165744 0.405377 -0.32637 0.837664 
0.72093 0.368319 0.518481 0.275281 
0.47585 -0.559443 -0.165615 -0.65815 
0.0700605 -0.0514261 -0.966408 0.241874 
0.180545 0.124363 0.072589 0.972969 
0.564836 0.704825 0.201184 -0.379086 
0.356291 -0.129973 0.0877131 0.921125 
-0.300801 0.458539 -0.4651 0.694941 
0.225121 0.345115 0.269935 0.870259 
0.719442 -0.644028 -0.255697 0.0474379 
0.568863 0.653865 -0.091011 -0.490482 
0.946347 0.160146 -0.155817 0.233454 
0.70338 0.196163 -0.101592 0.675615 
0.981005 -0.189282 -0.032139 0.0277158 
0.0170311 0.818724 0.555179 -0.145528 
0.704333 -0.572851 -0.354695 -0.22349 
0.379619 0.250432 -0.730396 0.509602 
0.551191 -0.177222 0.18146 -0.794892 
-0.945479 0.185225 -0.158618 0.215875 
0.435644 0.768776 -0.365295 0.292846 
-0.838294 0.509057 0.108089 -0.162604 
0.926184 0.303186 -0.208591 -0.0821636 
0.312843 -0.107935 0.923691 -0.193066 
0.829204 -0.043905 0.557195 0.00514025 
-0.684806 0.409436 -0.601581 -0.0387834 
-0.477525 0.532208 0.467612 -0.519676 
-0.614367 0.462648 0.491797 -0.408223 
0.129476 0.186384 0.960296 -0.162259 
0.165638 -0.0615916 -0.804349 -0.567268 
-0.190103 0.0128632 0.781781 -0.593729 
0.320108 -0.924532 -0.205133 0.0263031 
-0.461746 0.245468 0.654198 -0.546407 
-0.846764 -0.0522713 0.123251 0.514847 
-0.255208 -0.707896 0.127 0.646238 
0.0415568 0.244942 0.962918 0.105188 
-0.100761 0.0380283 0.992792 -0.0525882 
0.92161 0.248853 -0.260674 -0.14407 
-0.144214 -0.952435 -0.156259 0.218294 
0.968318 -0.143942 -0.130995 0.156463 
0.897321 -0.00866897 0.40426 -0.176955 
-0.909896 -0.119547 -0.138709 -0.372234 
0.566544 -0.354768 -0.3331 0.66499 
-0.550357 -0.752467 -0.351672 -0.0850149 
0.357624 0.345621 0.0296057 -0.86705 
-0.554401 0.770461 -0.297238 -0.103337 
0.949613 -0.237252 0.0155344 -0.204218 
0.960246 0.125417 -0.126079 -0.215179 
0.522082 -0.101387 -0.612308 0.585004 
0.882308 -0.222955 0.401577 -0.10276 
-0.529761 -0.211386 -0.137059 0.809866 
-0.558325 0.163483 -0.145139 -0.8003 
0.882484 0.286482 -0.0346665 -0.371415 
-0.426167 0.860197 0.00739184 0.279979 
0.9645 -0.0477636 0.250396 -0.0689934 
-0.240189 0.814287 -0.273551 0.452123 
0.985383 -0.15986 0.00278685 -0.058801 
0.785504 -0.444036 -0.397252 0.167352 
-0.182679 -0.318019 0.134369 -0.920563 
0.749118 0.450334 0.399221 -0.276845 
0.323022 0.91999 0.0800608 -0.207038 
-0.167554 0.548412 -0.631059 0.522431 
0.883396 -0.200321 0.315689 -0.282529 
-0.825178 0.344147 -0.447624 -0.0166388 
0.899584 -0.0323197 -0.367425 0.233889 
0.874568 -0.299208 0.378819 0.0458348 
0.79505 0.015353 0.371966 -0.478854 
0.435801 -0.588005 -0.216663 -0.646053 
0.31942 -0.788452 0.473657 0.227956 
0.236675 -0.133109 -0.728326 0.629133 
-0.623377 0.583758 0.0525696 -0.517556 
0.987373 -0.0664513 -0.0357934 -0.139276 
0.847008 -0.0709306 -0.107746 -0.515691 
0.2821 0.546297 0.729443 0.299822 
0.010102 0.433884 -0.900474 0.028097 
-0.6434 -0.602393 -0.454355 -0.12931 
-0.240081 -0.117993 -0.346743 0.899004 
0.934758 -0.144695 0.278011 0.167336 
-0.615448 0.464462 0.142117 -0.620726 
0.0937793 0.660171 0.728046 -0.159148 
0.82387 0.38005 -0.0669374 -0.415114 
-0.00650502 0.20613 -0.974662 0.0866174 
0.286851 -0.597372 -0.271707 0.697881 
-0.466749 -0.32107 0.579334 0.586031 
-0.0767613 -0.455562 0.296459 -0.835873 
0.811649 -0.26601 0.491212 0.170806 
-0.228491 0.072583 0.101747 0.96549 
0.954974 -0.156139 0.2384 0.0825311 
0.0175687 -0.911282 0.410602 -0.0257252 
0.476335 -0.0721944 -0.387584 0.785921 
0.883877 0.0848612 0.102438 0.448403 
0.269581 0.135492 -0.804077 0.512278 
0.0347207 0.0756092 0.480715 -0.872921 
-0.133241 -0.259797 -0.68925 0.663089 
0.351917 -0.445842 -0.41533 -0.71055 
-0.938232 -0.227066 -0.170857 0.197406 
0.78253 -0.55994 0.0618243 0.265126 
0.783789 0.283297 -0.53218 -0.149 
0.446362 0.623174 0.529149 -0.363891 
0.528947 0.290328 0.16896 -0.779344 
-0.554235 0.267188 0.762058 -0.201746 
0.460343 -0.451314 0.68318 0.343025 
-0.00493544 0.483964 0.730669 -0.481536 
-0.971944 0.0168147 -0.0859795 0.218289 
-0.00600207 -0.562934 -0.825122 0.0473646 
0.209613 0.198606 -0.948692 0.128847 
0.164759 -0.88978 0.265573 0.332592 
0.137161 -0.0918193 0.8461 0.506824 
0.278105 0.731688 0.219691 0.58226 
-0.703444 -0.705301 0.0642274 -0.0599389 
0.331072 0.899499 -0.185231 -0.216755 
-0.0319716 0.806092 -0.590755 0.0142273 
-0.627553 0.0898304 -0.772775 0.0304232 
0.449839 -0.227763 0.348182 0.790277 
-0.0999746 0.517676 -0.0640166 0.847301 
0.947553 -0.226532 -0.184745 0.129211 
0.0310645 -0.512682 -0.777843 -0.362149 
-0.498384 -0.822035 0.22604 0.157408 
0.737461 -0.507741 0.350714 -0.2745 
0.288762 -0.563638 0.162981 -0.756549 