# vtk DataFile Version 2.0
Generated by NetDEM
ASCII 
DATASET POLYDATA
POINTS 500 double
-0.418951 -0.408339 -0.464061 
-0.449609 -0.194182 -0.45002 
-0.407548 -0.0103492 -0.462152 
-0.450029 0.110029 -0.450025 
-0.438464 0.349317 -0.450068 
-0.270851 -0.429843 -0.459155 
-0.304924 -0.219733 -0.450052 
-0.191636 -0.0106591 -0.45007 
-0.172681 0.173293 -0.463906 
-0.254667 0.366504 -0.463437 
-0.0559649 -0.396942 -0.461183 
-0.146136 -0.134345 -0.450017 
-0.0556093 -0.0917592 -0.450025 
0.037887 0.179997 -0.452727 
-0.0298711 0.318731 -0.442538 
0.193195 -0.401568 -0.462904 
0.16948 -0.210083 -0.463242 
0.172646 -0.0051619 -0.462802 
0.161299 0.207627 -0.465037 
0.297894 0.403056 -0.41881 
0.450001 -0.409877 -0.450021 
0.433227 -0.300371 -0.450031 
0.338202 -0.0125189 -0.450007 
0.377296 0.0890134 -0.450022 
0.372112 0.439392 -0.465063 
-0.430842 -0.411061 -0.39395 
-0.45 -0.271015 -0.386026 
-0.408199 -0.0176743 -0.387071 
-0.445896 0.175883 -0.374612 
-0.450055 0.44913 -0.450105 
-0.336446 -0.406904 -0.407481 
-0.239337 -0.151375 -0.418048 
-0.15642 -0.100351 -0.210984 
-0.304599 0.164462 -0.465046 
-0.15004 0.403649 -0.450654 
-0.087397 -0.390897 -0.396306 
0.310663 -0.245494 -0.131539 
-0.040866 -0.0160436 -0.308585 
0.0284092 0.259763 -0.450507 
0.121836 0.301902 -0.429776 
0.202242 -0.414254 -0.390735 
0.166754 -0.206252 -0.390125 
0.175341 0.0161387 -0.385983 
0.197273 0.112808 -0.455761 
0.285361 0.369553 -0.325467 
0.382883 -0.450009 -0.387715 
0.43548 -0.356037 -0.367019 
0.275791 -0.211485 -0.450018 
0.449989 0.141093 -0.405302 
0.425204 0.340891 -0.456392 
-0.4357 -0.441087 -0.326055 
-0.320573 -0.209055 -0.3519 
-0.312094 -0.0202773 -0.368845 
-0.289386 0.270331 -0.450015 
-0.45003 0.275391 -0.383618 
-0.180721 -0.373707 -0.451795 
0.183265 -0.336838 -0.300335 
-0.238743 -0.0564315 -0.175029 
-0.174981 0.0781244 -0.450133 
-0.350216 0.331235 -0.336223 
0.0436507 -0.439775 -0.449709 
0.207171 -0.284527 -0.143452 
0.205433 0.0625079 -0.205544 
-0.0400904 0.221585 -0.392801 
0.256254 0.331467 -0.463583 
0.196972 -0.43503 -0.319628 
0.0517322 -0.0961021 -0.450519 
0.161563 0.0608099 -0.331592 
0.272156 0.0650705 -0.442722 
0.113113 0.138907 -0.397614 
0.301243 -0.446821 -0.450007 
0.377739 -0.216272 -0.450063 
0.379349 -0.109695 -0.450036 
0.449983 0.23257 -0.364803 
0.437701 0.256458 -0.459877 
-0.433687 -0.452861 -0.243623 
-0.175809 -0.163726 -0.341827 
-0.238989 -0.00435925 -0.353041 
-0.269959 0.0898939 -0.404464 
-0.354963 0.142967 -0.347674 
-0.160545 -0.448562 -0.394092 
-0.12673 -0.0563771 -0.389308 
-0.239502 0.0483244 -0.224283 
-0.0548552 0.128161 -0.444573 
-0.355574 0.380447 -0.407794 
0.0924184 -0.451455 -0.355581 
0.449114 -0.333388 -0.0779089 
-0.188114 -0.239468 -0.45001 
0.0174341 0.0472638 -0.450237 
0.0672732 0.398107 -0.409958 
0.260596 -0.445882 -0.243826 
0.15495 -0.318591 -0.400299 
0.121688 0.0675677 -0.269865 
0.26439 0.174841 -0.443094 
0.144394 0.450013 -0.450018 
0.347328 -0.311361 -0.351561 
0.450011 -0.106112 -0.379403 
0.387165 0.160881 -0.329172 
0.331037 0.308948 -0.412237 
0.436418 0.371712 -0.377274 
-0.387395 -0.439645 -0.169568 
-0.367698 -0.360915 -0.119267 
-0.294479 -0.0400841 -0.274637 
-0.367251 0.0681422 -0.41282 
-0.447786 0.425908 -0.352747 
-0.268318 -0.438959 -0.363304 
-0.0629265 -0.156274 -0.373859 
-0.249082 0.0399823 -0.125107 
-0.00358971 -0.0237289 -0.396786 
-0.423234 0.242512 -0.464023 
0.0827781 -0.342367 -0.44074 
0.355173 -0.211919 -0.0473522 
0.0350008 -0.119072 -0.35081 
0.0283925 0.0425607 -0.354989 
-0.0029538 0.436786 -0.464362 
0.301953 -0.385584 -0.215595 
0.259761 -0.314937 -0.424448 
0.0394091 0.068938 -0.26011 
0.246294 0.240654 -0.380036 
0.348822 0.450017 -0.270728 
0.328406 -0.406173 -0.316232 
0.450034 -0.20915 -0.381397 
0.45 -0.0308848 -0.450007 
0.339562 0.209821 -0.402236 
0.397712 0.453084 -0.373749 
-0.462087 -0.452486 -0.126026 
-0.320322 -0.139331 -0.280257 
-0.45132 -0.0308519 -0.319627 
-0.252666 0.189946 -0.39408 
-0.30643 0.448802 -0.35878 
-0.163368 -0.374732 -0.337682 
-0.0850002 -0.222681 -0.450007 
-0.194263 -0.161231 -0.141285 
-0.134634 0.148048 -0.397273 
-0.228702 0.332528 -0.393994 
-0.0923862 -0.310534 -0.451289 
0.287999 -0.318457 -0.0670352 
0.449955 0.0525438 -0.159944 
0.0458251 0.120542 -0.330502 
-0.114832 0.312856 -0.405809 
0.163051 -0.431841 -0.233737 
0.238533 -0.140317 -0.392989 
0.110458 -0.023122 -0.219699 
0.196239 0.306983 -0.338972 
0.201559 0.385154 -0.396317 
0.449984 -0.439747 -0.314285 
0.334938 -0.173202 -0.370636 
0.250042 -0.0612079 -0.450033 
0.448938 0.0511886 -0.361544 
0.440758 0.407788 -0.299685 
-0.43879 -0.45758 -0.0107721 
-0.228416 -0.171323 -0.257124 
-0.423533 -0.112919 -0.405812 
-0.207028 0.271794 -0.332188 
-0.33618 0.239198 -0.367316 
-0.139825 -0.28953 -0.369713 
0.129675 -0.450017 -0.0923537 
-0.306688 0.363259 -0.179332 
-0.105871 0.275232 -0.325984 
-0.223422 0.454149 -0.431474 
-0.00139637 -0.339751 -0.358751 
0.118268 -0.239002 -0.148317 
-0.176981 -0.0697398 -0.30393 
0.0189815 0.200133 -0.30103 
0.00950178 0.294374 -0.34857 
0.0753594 -0.412513 -0.273945 
0.135133 -0.0965909 -0.398131 
0.257463 -0.117721 -0.264851 
0.231768 0.184365 -0.324102 
0.139759 0.448769 -0.350127 
0.387737 -0.227623 -0.305412 
0.344479 -0.068941 -0.365643 
0.321434 0.0579426 -0.372023 
0.401756 0.302821 -0.310247 
0.446501 0.377499 -0.212443 
-0.329344 -0.445561 -0.0617265 
-0.448515 -0.0991149 -0.262994 
-0.357005 0.0112589 -0.24126 
-0.450001 0.0685889 -0.353883 
-0.418529 0.260868 -0.289871 
-0.267651 -0.308774 -0.446493 
-0.179631 -0.276303 -0.239988 
-0.143212 0.39975 -0.073389 
-0.126205 0.189063 -0.333821 
-0.139802 0.441897 -0.3495 
0.00622393 -0.435313 -0.355953 
0.0156035 -0.0966552 -0.255296 
0.015732 -0.224452 -0.450007 
-0.0272304 0.270409 -0.246315 
-0.00589091 0.411262 -0.369593 
0.0748903 -0.426858 -0.172335 
0.0979454 -0.0404996 -0.330725 
0.287727 -0.160283 -0.186476 
0.203402 0.136928 -0.267084 
0.249084 0.450028 -0.278361 
0.450009 -0.30926 -0.279858 
0.450004 -0.149149 -0.289146 
0.364982 0.0399075 -0.283882 
0.31758 0.248869 -0.308706 
0.382202 0.426915 -0.194672 
-0.244664 -0.445016 -0.139466 
-0.443032 0.230101 -0.197888 
-0.293333 0.191299 -0.18295 
-0.19 0.0760393 -0.342251 
-0.376353 0.4499 -0.287173 
-0.226078 -0.349271 -0.2413 
-0.0438151 -0.261716 -0.305678 
0.0154409 -0.243363 -0.227241 
-0.157826 0.116335 -0.252844 
-0.167479 0.350927 -0.327563 
-0.0436612 -0.386309 -0.290489 
-0.186084 -0.0953988 0.193031 
-0.0274957 0.205025 -0.16548 
-0.0556691 0.117982 -0.309927 
0.103765 0.359156 -0.328176 
0.261593 -0.434626 -0.132519 
0.21884 -0.196563 -0.310366 
0.293544 -0.106385 -0.119429 
0.151 0.227923 -0.288163 
0.204149 0.351092 -0.251186 
0.410434 -0.388613 -0.233675 
0.446521 -0.226051 -0.224534 
0.435216 -0.0343448 -0.311387 
0.303781 0.118713 -0.290277 
0.40675 0.404344 -0.121556 
-0.252952 -0.332444 -0.149678 
-0.4166 -0.334936 -0.316759 
-0.430098 0.330301 -0.133416 
-0.34119 0.323185 -0.0575526 
-0.448974 0.426756 -0.00577838 
-0.141088 -0.416887 -0.25039 
-0.0527923 0.136222 -0.0618973 
-0.259818 -0.176711 -0.0212061 
-0.183469 0.176212 -0.182271 
-0.158974 0.337793 -0.219165 
-0.0614646 -0.384877 -0.204099 
-0.137338 -0.141352 -0.00917991 
-0.112144 -0.0255735 -0.161484 
-0.00348447 0.110451 -0.193972 
0.0253288 0.446537 -0.276971 
0.298218 -0.33003 -0.167673 
0.246775 -0.295402 -0.3424 
0.350764 -0.0516205 -0.0682411 
0.154848 0.27254 -0.216676 
0.207825 0.406049 -0.132732 
0.357903 -0.449988 -0.168621 
0.449978 -0.199537 -0.0766192 
0.336057 0.130205 -0.000403737 
0.449999 0.152832 -0.172366 
0.425864 0.388195 -0.0407352 
-0.298036 -0.320139 -0.347269 
-0.117809 -0.204047 -0.271057 
-0.325166 -0.0203398 -0.143208 
-0.219343 0.205852 -0.258055 
-0.423629 0.44438 -0.199283 
-0.248662 -0.429786 -0.268589 
0.0983619 -0.283729 -0.305629 
-0.308915 0.25693 -0.12515 
-0.247949 0.302118 -0.205061 
-0.150575 0.442338 -0.238712 
0.0164823 -0.381135 -0.160371 
0.450006 -0.389564 0.00480498 
0.0768512 0.437555 -0.185831 
-0.0740256 0.406566 -0.320637 
-0.037863 0.447853 -0.2162 
0.353779 -0.395642 -0.0855804 
0.373042 -0.0980661 -0.166882 
0.195176 -0.0260091 -0.288071 
0.221499 0.1994 -0.197185 
0.0881645 0.238984 -0.366761 
0.356053 -0.299976 -0.242281 
0.351564 -0.149364 -0.254793 
0.450053 0.0837561 -0.254911 
0.448849 0.216022 -0.266205 
0.408239 0.450766 -0.0119578 
-0.336766 -0.393906 0.0205663 
-0.138355 -0.345527 -0.130521 
-0.433094 -0.112133 -0.178917 
-0.450015 0.0948845 -0.169873 
-0.345881 0.197188 -0.26414 
-0.144549 -0.443036 -0.159329 
-0.0634739 -0.289868 -0.175568 
-0.228989 0.450027 -0.295434 
-0.282396 0.311675 -0.280305 
-0.218113 0.435134 -0.164831 
0.0406213 -0.406385 -0.0750909 
-0.115338 0.450005 0.127495 
0.0317864 0.182649 -0.0881291 
-0.0701852 0.307045 -0.191285 
0.00621726 0.368572 -0.178497 
0.268924 -0.419402 -0.0225365 
0.0283344 -0.0908545 -0.00325204 
0.145756 -0.0377881 -0.13451 
0.288437 0.173793 -0.139874 
0.0705844 0.253613 -0.150321 
0.406156 -0.282081 -0.152209 
0.450013 -0.147914 -0.162254 
0.330691 -0.0521363 -0.26514 
0.450003 0.276949 -0.186916 
0.30157 0.414584 -0.0771977 
-0.290643 -0.354091 -0.0584259 
-0.417658 0.000812404 -0.179961 
-0.393566 -0.296451 -0.063764 
-0.432159 0.137253 -0.283412 
-0.450012 0.450012 -0.102995 
-0.157146 -0.427508 -0.0585413 
-0.138277 -0.321405 -0.0320958 
-0.281443 0.0907122 -0.304552 
-0.134204 0.279235 -0.103688 
-0.250379 0.380646 -0.0928305 
-0.0217924 -0.426379 -0.0125303 
-0.407053 -0.173612 -0.316347 
0.0119602 -0.00326835 -0.219708 
-0.0437118 0.290813 -0.0838812 
-0.00879731 0.44378 -0.127012 
0.152706 -0.390808 -0.0117074 
0.451888 0.00315409 0.0185121 
0.0755994 -0.0285193 -0.0670784 
0.304015 0.336642 -0.200209 
0.281669 0.450002 -0.183855 
0.372297 -0.449999 -0.0148546 
0.439277 -0.0452339 0.0955303 
0.24575 -0.0572177 -0.350221 
0.348223 0.252842 -0.18644 
0.439483 0.452796 0.0761922 
-0.347264 -0.213626 0.0144174 
-0.388174 -0.271678 -0.159763 
-0.418986 0.101521 -0.0884197 
-0.388325 0.3153 -0.211507 
-0.450003 0.366318 -0.272482 
-0.173965 -0.433729 0.0543011 
-0.0575148 -0.149817 -0.212553 
-0.224486 0.29061 -0.0833184 
-0.1014 0.38426 -0.159663 
-0.0736065 0.440376 -0.0440364 
-0.0918873 -0.446457 0.032546 
0.0793833 -0.166595 -0.22304 
-0.0683896 0.0661472 -0.131502 
0.0331041 0.249343 -0.0269794 
0.00780149 0.423685 -0.0534564 
0.136867 -0.336259 -0.0873102 
0.17788 -0.189555 -0.224901 
0.127154 0.151137 -0.179328 
0.31278 0.221026 -0.0547753 
0.171584 0.450003 -0.215247 
0.449884 -0.416134 -0.146118 
0.320914 -0.267408 0.0284442 
0.411824 -0.021683 -0.214996 
0.369904 0.165885 -0.230802 
0.419044 0.272998 0.180036 
-0.420927 -0.381913 0.0634086 
-0.450005 -0.216165 -0.236705 
-0.365593 0.218216 -0.0728792 
-0.447942 0.06294 0.00311843 
-0.450004 0.194754 -0.104594 
-0.227356 -0.37936 0.00475358 
-0.2774 -0.111766 -0.0951721 
-0.322296 -0.110556 -0.184517 
-0.190993 0.357218 0.0087243 
-0.131737 0.399787 0.0324664 
0.041697 -0.186535 -0.121096 
-0.150455 -0.247395 -0.115587 
0.219533 0.136471 -0.071193 
0.1054 0.317109 -0.0294029 
-0.0205503 0.439488 0.0380063 
0.0774764 -0.215039 -0.0116258 
0.45565 -0.0732592 -0.104339 
0.281653 0.0621101 -0.0178556 
0.190855 0.224219 -0.107205 
0.103769 0.336457 0.0880792 
0.399016 -0.0785013 0.0102643 
0.448765 -0.267202 -0.00293722 
0.365838 0.01053 -0.12592 
0.426749 0.111867 -0.0828801 
0.327335 0.318711 -0.103846 
-0.427449 -0.179462 -0.127321 
-0.450004 -0.24207 -0.025504 
-0.395907 -0.00565768 -0.0853123 
-0.44998 0.282513 0.0606784 
-0.344531 0.448153 -0.138071 
-0.239435 -0.305082 0.0689674 
-0.274432 -0.275294 -0.0130829 
-0.326438 0.0622122 -0.041013 
-0.119543 0.218695 -0.038271 
-0.127199 0.19402 0.0410781 
0.0272526 -0.312561 -0.00781564 
-0.121834 -0.104928 -0.1014 
0.111898 0.112745 -0.0874071 
-0.156176 0.106354 -0.122142 
0.0413471 0.411189 0.119191 
0.0390837 -0.29157 -0.137271 
0.285344 -0.0738059 -0.00711602 
0.26797 0.0237746 -0.0911869 
0.185093 0.280978 -0.0273304 
0.149689 0.325799 -0.146149 
0.328147 -0.34155 0.0952706 
0.257934 -0.177515 -0.0651992 
0.416315 0.187229 -0.0179139 
0.409815 0.234647 -0.105713 
0.437381 0.276121 0.0108441 
-0.336446 -0.347965 0.103873 
-0.3389 -0.225858 -0.233726 
-0.447863 -0.0600457 -0.0156435 
-0.449991 0.132944 0.0756279 
-0.279894 0.365719 0.00916626 
-0.0614352 -0.180841 -0.125837 
-0.177878 -0.232763 -0.00809445 
-0.233743 0.00272794 -0.0336014 
-0.286953 0.217554 -0.000911194 
-0.204826 0.411486 0.100242 
0.210175 -0.0591589 -0.092582 
0.00211479 -0.0808575 -0.157327 
-0.136981 -0.0333176 0.13178 
-0.0226468 0.242797 0.0509783 
-0.0714599 0.350616 0.0882043 
0.312006 -0.44158 0.0797712 
0.328408 -0.210736 0.113141 
0.178051 0.0396466 -0.121006 
0.263701 0.288689 0.0188148 
0.240345 0.45 -0.00340587 
0.447575 -0.165624 0.0175115 
0.315893 0.362454 0.00303621 
0.449712 0.0881821 0.0115061 
0.431912 0.16122 0.0774373 
0.385183 0.367721 0.0722398 
-0.402541 -0.396123 0.148735 
-0.436313 -0.264555 0.070964 
-0.196309 -0.073244 -0.066898 
-0.444921 0.269578 -0.0383624 
-0.38875 0.35319 0.0251737 
-0.21066 -0.39299 0.106808 
-0.247442 -0.00268269 0.128906 
-0.0419207 -0.0123686 -0.0755202 
-0.28406 0.141996 -0.0810333 
-0.285322 0.399516 0.171609 
0.187629 -0.42749 0.0720265 
0.119607 -0.133259 -0.12424 
0.0328138 0.0520691 -0.113862 
-0.0890542 0.107243 0.0788659 
-0.0413886 0.41193 0.168684 
0.30619 -0.41341 0.175602 
0.205601 -0.11604 0.00313888 
0.0963959 0.191753 0.017177 
0.270648 0.169958 0.159771 
0.156612 0.417136 -0.0475755 
0.414616 -0.450022 0.0761457 
0.332107 -0.161222 0.0357209 
-0.207964 0.133433 0.0593948 
0.365807 0.207432 0.136547 
0.317411 0.450986 0.0694614 
-0.441911 -0.450744 0.183803 
-0.286294 0.0512734 0.0499168 
-0.395797 0.00123332 0.0470773 
-0.420212 0.158049 -0.0164748 
-0.450006 0.417364 0.0937766 
-0.296845 -0.450512 0.0773058 
-0.237942 -0.153373 0.0735295 
-0.173563 0.0327943 0.0403709 
-0.349568 0.135834 0.0898741 
-0.432187 0.405199 0.202196 
0.238737 -0.252947 0.127236 
-0.0455744 -0.145375 -0.0487124 
-0.0900213 0.0620765 -0.00611515 
0.0229154 0.330879 0.0332132 
0.0131076 0.315662 0.132418 
0.194471 -0.246883 -0.052184 
0.214976 -0.297356 0.0365829 
0.193494 -0.0147787 -0.0153454 
0.192513 0.170451 0.0173792 
0.079774 0.425812 0.0160157 
0.423743 -0.360152 0.119021 
0.449959 -0.15344 0.116738 
0.347648 0.00757362 0.0294608 
0.273972 0.165906 0.0707536 
0.450474 0.353976 0.126712 
-0.311209 -0.311677 0.167916 
-0.202262 -0.0607097 0.061147 
-0.439403 -0.00772726 0.15264 
-0.370596 0.222058 0.0537509 
-0.364011 0.448523 0.134197 
-0.180468 -0.244262 0.0918447 
-0.203814 -0.188373 0.160761 
-0.0866579 -0.0232182 0.0459647 
-0.316745 0.313895 0.0857677 
-0.220681 0.237191 0.0716298 
-0.0474369 -0.114265 0.0504584 
-0.0145339 -0.252193 -0.0651449 
0.016806 0.00276433 0.00398734 
0.236525 -0.154733 0.0836793 
0.0131025 0.448736 0.229074 
0.210916 -0.38741 0.179491 
0.443944 -0.302118 0.189604 
0.309723 0.0621326 0.109024 
0.177352 0.24695 0.0749027 
0.182756 0.366026 0.0342976 
0.400617 -0.406595 0.221366 
0.449607 -0.203196 0.20348 
0.325524 -0.071854 0.0860318 
0.400749 0.0921463 0.142687 
0.231112 0.42452 0.107548 
VERTICES 500 1000
1 0
1 1
1 2
1 3
1 4
1 5
1 6
1 7
1 8
1 9
1 10
1 11
1 12
1 13
1 14
1 15
1 16
1 17
1 18
1 19
1 20
1 21
1 22
1 23
1 24
1 25
1 26
1 27
1 28
1 29
1 30
1 31
1 32
1 33
1 34
1 35
1 36
1 37
1 38
1 39
1 40
1 41
1 42
1 43
1 44
1 45
1 46
1 47
1 48
1 49
1 50
1 51
1 52
1 53
1 54
1 55
1 56
1 57
1 58
1 59
1 60
1 61
1 62
1 63
1 64
1 65
1 66
1 67
1 68
1 69
1 70
1 71
1 72
1 73
1 74
1 75
1 76
1 77
1 78
1 79
1 80
1 81
1 82
1 83
1 84
1 85
1 86
1 87
1 88
1 89
1 90
1 91
1 92
1 93
1 94
1 95
1 96
1 97
1 98
1 99
1 100
1 101
1 102
1 103
1 104
1 105
1 106
1 107
1 108
1 109
1 110
1 111
1 112
1 113
1 114
1 115
1 116
1 117
1 118
1 119
1 120
1 121
1 122
1 123
1 124
1 125
1 126
1 127
1 128
1 129
1 130
1 131
1 132
1 133
1 134
1 135
1 136
1 137
1 138
1 139
1 140
1 141
1 142
1 143
1 144
1 145
1 146
1 147
1 148
1 149
1 150
1 151
1 152
1 153
1 154
1 155
1 156
1 157
1 158
1 159
1 160
1 161
1 162
1 163
1 164
1 165
1 166
1 167
1 168
1 169
1 170
1 171
1 172
1 173
1 174
1 175
1 176
1 177
1 178
1 179
1 180
1 181
1 182
1 183
1 184
1 185
1 186
1 187
1 188
1 189
1 190
1 191
1 192
1 193
1 194
1 195
1 196
1 197
1 198
1 199
1 200
1 201
1 202
1 203
1 204
1 205
1 206
1 207
1 208
1 209
1 210
1 211
1 212
1 213
1 214
1 215
1 216
1 217
1 218
1 219
1 220
1 221
1 222
1 223
1 224
1 225
1 226
1 227
1 228
1 229
1 230
1 231
1 232
1 233
1 234
1 235
1 236
1 237
1 238
1 239
1 240
1 241
1 242
1 243
1 244
1 245
1 246
1 247
1 248
1 249
1 250
1 251
1 252
1 253
1 254
1 255
1 256
1 257
1 258
1 259
1 260
1 261
1 262
1 263
1 264
1 265
1 266
1 267
1 268
1 269
1 270
1 271
1 272
1 273
1 274
1 275
1 276
1 277
1 278
1 279
1 280
1 281
1 282
1 283
1 284
1 285
1 286
1 287
1 288
1 289
1 290
1 291
1 292
1 293
1 294
1 295
1 296
1 297
1 298
1 299
1 300
1 301
1 302
1 303
1 304
1 305
1 306
1 307
1 308
1 309
1 310
1 311
1 312
1 313
1 314
1 315
1 316
1 317
1 318
1 319
1 320
1 321
1 322
1 323
1 324
1 325
1 326
1 327
1 328
1 329
1 330
1 331
1 332
1 333
1 334
1 335
1 336
1 337
1 338
1 339
1 340
1 341
1 342
1 343
1 344
1 345
1 346
1 347
1 348
1 349
1 350
1 351
1 352
1 353
1 354
1 355
1 356
1 357
1 358
1 359
1 360
1 361
1 362
1 363
1 364
1 365
1 366
1 367
1 368
1 369
1 370
1 371
1 372
1 373
1 374
1 375
1 376
1 377
1 378
1 379
1 380
1 381
1 382
1 383
1 384
1 385
1 386
1 387
1 388
1 389
1 390
1 391
1 392
1 393
1 394
1 395
1 396
1 397
1 398
1 399
1 400
1 401
1 402
1 403
1 404
1 405
1 406
1 407
1 408
1 409
1 410
1 411
1 412
1 413
1 414
1 415
1 416
1 417
1 418
1 419
1 420
1 421
1 422
1 423
1 424
1 425
1 426
1 427
1 428
1 429
1 430
1 431
1 432
1 433
1 434
1 435
1 436
1 437
1 438
1 439
1 440
1 441
1 442
1 443
1 444
1 445
1 446
1 447
1 448
1 449
1 450
1 451
1 452
1 453
1 454
1 455
1 456
1 457
1 458
1 459
1 460
1 461
1 462
1 463
1 464
1 465
1 466
1 467
1 468
1 469
1 470
1 471
1 472
1 473
1 474
1 475
1 476
1 477
1 478
1 479
1 480
1 481
1 482
1 483
1 484
1 485
1 486
1 487
1 488
1 489
1 490
1 491
1 492
1 493
1 494
1 495
1 496
1 497
1 498
1 499
POINT_DATA 500
SCALARS id int 1
LOOKUP_TABLE default
0
1
2
3
4
5
6
7
8
9
10
11
12
13
14
15
16
17
18
19
20
21
22
23
24
25
26
27
28
29
30
31
32
33
34
35
36
37
38
39
40
41
42
43
44
45
46
47
48
49
50
51
52
53
54
55
56
57
58
59
60
61
62
63
64
65
66
67
68
69
70
71
72
73
74
75
76
77
78
79
80
81
82
83
84
85
86
87
88
89
90
91
92
93
94
95
96
97
98
99
100
101
102
103
104
105
106
107
108
109
110
111
112
113
114
115
116
117
118
119
120
121
122
123
124
125
126
127
128
129
130
131
132
133
134
135
136
137
138
139
140
141
142
143
144
145
146
147
148
149
150
151
152
153
154
155
156
157
158
159
160
161
162
163
164
165
166
167
168
169
170
171
172
173
174
175
176
177
178
179
180
181
182
183
184
185
186
187
188
189
190
191
192
193
194
195
196
197
198
199
200
201
202
203
204
205
206
207
208
209
210
211
212
213
214
215
216
217
218
219
220
221
222
223
224
225
226
227
228
229
230
231
232
233
234
235
236
237
238
239
240
241
242
243
244
245
246
247
248
249
250
251
252
253
254
255
256
257
258
259
260
261
262
263
264
265
266
267
268
269
270
271
272
273
274
275
276
277
278
279
280
281
282
283
284
285
286
287
288
289
290
291
292
293
294
295
296
297
298
299
300
301
302
303
304
305
306
307
308
309
310
311
312
313
314
315
316
317
318
319
320
321
322
323
324
325
326
327
328
329
330
331
332
333
334
335
336
337
338
339
340
341
342
343
344
345
346
347
348
349
350
351
352
353
354
355
356
357
358
359
360
361
362
363
364
365
366
367
368
369
370
371
372
373
374
375
376
377
378
379
380
381
382
383
384
385
386
387
388
389
390
391
392
393
394
395
396
397
398
399
400
401
402
403
404
405
406
407
408
409
410
411
412
413
414
415
416
417
418
419
420
421
422
423
424
425
426
427
428
429
430
431
432
433
434
435
436
437
438
439
440
441
442
443
444
445
446
447
448
449
450
451
452
453
454
455
456
457
458
459
460
461
462
463
464
465
466
467
468
469
470
471
472
473
474
475
476
477
478
479
480
481
482
483
484
485
486
487
488
489
490
491
492
493
494
495
496
497
498
499
SCALARS type int 1
LOOKUP_TABLE default
0
0
0
0
0
0
0
0
0
0
0
0
0
0
0
0
0
0
0
0
0
0
0
0
0
0
0
0
0
0
0
0
0
0
0
0
0
0
0
0
0
0
0
0
0
0
0
0
0
0
0
0
0
0
0
0
0
0
0
0
0
0
0
0
0
0
0
0
0
0
0
0
0
0
0
0
0
0
0
0
0
0
0
0
0
0
0
0
0
0
0
0
0
0
0
0
0
0
0
0
0
0
0
0
0
0
0
0
0
0
0
0
0
0
0
0
0
0
0
0
0
0
0
0
0
0
0
0
0
0
0
0
0
0
0
0
0
0
0
0
0
0
0
0
0
0
0
0
0
0
0
0
0
0
0
0
0
0
0
0
0
0
0
0
0
0
0
0
0
0
0
0
0
0
0
0
0
0
0
0
0
0
0
0
0
0
0
0
0
0
0
0
0
0
0
0
0
0
0
0
0
0
0
0
0
0
0
0
0
0
0
0
0
0
0
0
0
0
0
0
0
0
0
0
0
0
0
0
0
0
0
0
0
0
0
0
0
0
0
0
0
0
0
0
0
0
0
0
0
0
0
0
0
0
0
0
0
0
0
0
0
0
0
0
0
0
0
0
0
0
0
0
0
0
0
0
0
0
0
0
0
0
0
0
0
0
0
0
0
0
0
0
0
0
0
0
0
0
0
0
0
0
0
0
0
0
0
0
0
0
0
0
0
0
0
0
0
0
0
0
0
0
0
0
0
0
0
0
0
0
0
0
0
0
0
0
0
0
0
0
0
0
0
0
0
0
0
0
0
0
0
0
0
0
0
0
0
0
0
0
0
0
0
0
0
0
0
0
0
0
0
0
0
0
0
0
0
0
0
0
0
0
0
0
0
0
0
0
0
0
0
0
0
0
0
0
0
0
0
0
0
0
0
0
0
0
0
0
0
0
0
0
0
0
0
0
0
0
0
0
0
0
0
0
0
0
0
0
0
0
0
0
0
0
0
0
0
0
0
0
0
0
0
0
0
0
0
0
0
0
0
0
0
0
0
0
0
0
0
0
0
0
0
0
0
0
0
0
0
0
0
0
0
0
0
0
0
0
0
0
0
0
0
0
0
0
0
0
0
0
0
0
0
0
0
0
0
0
0
0
SCALARS damp_viscous double 1
LOOKUP_TABLE default
0
0
0
0
0
0
0
0
0
0
0
0
0
0
0
0
0
0
0
0
0
0
0
0
0
0
0
0
0
0
0
0
0
0
0
0
0
0
0
0
0
0
0
0
0
0
0
0
0
0
0
0
0
0
0
0
0
0
0
0
0
0
0
0
0
0
0
0
0
0
0
0
0
0
0
0
0
0
0
0
0
0
0
0
0
0
0
0
0
0
0
0
0
0
0
0
0
0
0
0
0
0
0
0
0
0
0
0
0
0
0
0
0
0
0
0
0
0
0
0
0
0
0
0
0
0
0
0
0
0
0
0
0
0
0
0
0
0
0
0
0
0
0
0
0
0
0
0
0
0
0
0
0
0
0
0
0
0
0
0
0
0
0
0
0
0
0
0
0
0
0
0
0
0
0
0
0
0
0
0
0
0
0
0
0
0
0
0
0
0
0
0
0
0
0
0
0
0
0
0
0
0
0
0
0
0
0
0
0
0
0
0
0
0
0
0
0
0
0
0
0
0
0
0
0
0
0
0
0
0
0
0
0
0
0
0
0
0
0
0
0
0
0
0
0
0
0
0
0
0
0
0
0
0
0
0
0
0
0
0
0
0
0
0
0
0
0
0
0
0
0
0
0
0
0
0
0
0
0
0
0
0
0
0
0
0
0
0
0
0
0
0
0
0
0
0
0
0
0
0
0
0
0
0
0
0
0
0
0
0
0
0
0
0
0
0
0
0
0
0
0
0
0
0
0
0
0
0
0
0
0
0
0
0
0
0
0
0
0
0
0
0
0
0
0
0
0
0
0
0
0
0
0
0
0
0
0
0
0
0
0
0
0
0
0
0
0
0
0
0
0
0
0
0
0
0
0
0
0
0
0
0
0
0
0
0
0
0
0
0
0
0
0
0
0
0
0
0
0
0
0
0
0
0
0
0
0
0
0
0
0
0
0
0
0
0
0
0
0
0
0
0
0
0
0
0
0
0
0
0
0
0
0
0
0
0
0
0
0
0
0
0
0
0
0
0
0
0
0
0
0
0
0
0
0
0
0
0
0
0
0
0
0
0
0
0
0
0
0
0
0
0
0
0
0
0
0
0
0
0
0
0
0
0
0
0
0
0
0
0
0
0
0
0
0
0
0
0
0
0
SCALARS damp_numerical double 1
LOOKUP_TABLE default
0.5
0.5
0.5
0.5
0.5
0.5
0.5
0.5
0.5
0.5
0.5
0.5
0.5
0.5
0.5
0.5
0.5
0.5
0.5
0.5
0.5
0.5
0.5
0.5
0.5
0.5
0.5
0.5
0.5
0.5
0.5
0.5
0.5
0.5
0.5
0.5
0.5
0.5
0.5
0.5
0.5
0.5
0.5
0.5
0.5
0.5
0.5
0.5
0.5
0.5
0.5
0.5
0.5
0.5
0.5
0.5
0.5
0.5
0.5
0.5
0.5
0.5
0.5
0.5
0.5
0.5
0.5
0.5
0.5
0.5
0.5
0.5
0.5
0.5
0.5
0.5
0.5
0.5
0.5
0.5
0.5
0.5
0.5
0.5
0.5
0.5
0.5
0.5
0.5
0.5
0.5
0.5
0.5
0.5
0.5
0.5
0.5
0.5
0.5
0.5
0.5
0.5
0.5
0.5
0.5
0.5
0.5
0.5
0.5
0.5
0.5
0.5
0.5
0.5
0.5
0.5
0.5
0.5
0.5
0.5
0.5
0.5
0.5
0.5
0.5
0.5
0.5
0.5
0.5
0.5
0.5
0.5
0.5
0.5
0.5
0.5
0.5
0.5
0.5
0.5
0.5
0.5
0.5
0.5
0.5
0.5
0.5
0.5
0.5
0.5
0.5
0.5
0.5
0.5
0.5
0.5
0.5
0.5
0.5
0.5
0.5
0.5
0.5
0.5
0.5
0.5
0.5
0.5
0.5
0.5
0.5
0.5
0.5
0.5
0.5
0.5
0.5
0.5
0.5
0.5
0.5
0.5
0.5
0.5
0.5
0.5
0.5
0.5
0.5
0.5
0.5
0.5
0.5
0.5
0.5
0.5
0.5
0.5
0.5
0.5
0.5
0.5
0.5
0.5
0.5
0.5
0.5
0.5
0.5
0.5
0.5
0.5
0.5
0.5
0.5
0.5
0.5
0.5
0.5
0.5
0.5
0.5
0.5
0.5
0.5
0.5
0.5
0.5
0.5
0.5
0.5
0.5
0.5
0.5
0.5
0.5
0.5
0.5
0.5
0.5
0.5
0.5
0.5
0.5
0.5
0.5
0.5
0.5
0.5
0.5
0.5
0.5
0.5
0.5
0.5
0.5
0.5
0.5
0.5
0.5
0.5
0.5
0.5
0.5
0.5
0.5
0.5
0.5
0.5
0.5
0.5
0.5
0.5
0.5
0.5
0.5
0.5
0.5
0.5
0.5
0.5
0.5
0.5
0.5
0.5
0.5
0.5
0.5
0.5
0.5
0.5
0.5
0.5
0.5
0.5
0.5
0.5
0.5
0.5
0.5
0.5
0.5
0.5
0.5
0.5
0.5
0.5
0.5
0.5
0.5
0.5
0.5
0.5
0.5
0.5
0.5
0.5
0.5
0.5
0.5
0.5
0.5
0.5
0.5
0.5
0.5
0.5
0.5
0.5
0.5
0.5
0.5
0.5
0.5
0.5
0.5
0.5
0.5
0.5
0.5
0.5
0.5
0.5
0.5
0.5
0.5
0.5
0.5
0.5
0.5
0.5
0.5
0.5
0.5
0.5
0.5
0.5
0.5
0.5
0.5
0.5
0.5
0.5
0.5
0.5
0.5
0.5
0.5
0.5
0.5
0.5
0.5
0.5
0.5
0.5
0.5
0.5
0.5
0.5
0.5
0.5
0.5
0.5
0.5
0.5
0.5
0.5
0.5
0.5
0.5
0.5
0.5
0.5
0.5
0.5
0.5
0.5
0.5
0.5
0.5
0.5
0.5
0.5
0.5
0.5
0.5
0.5
0.5
0.5
0.5
0.5
0.5
0.5
0.5
0.5
0.5
0.5
0.5
0.5
0.5
0.5
0.5
0.5
0.5
0.5
0.5
0.5
0.5
0.5
0.5
0.5
0.5
0.5
0.5
0.5
0.5
0.5
0.5
0.5
0.5
0.5
0.5
0.5
0.5
0.5
0.5
0.5
0.5
0.5
0.5
0.5
0.5
0.5
0.5
0.5
0.5
0.5
0.5
0.5
0.5
0.5
0.5
0.5
0.5
0.5
0.5
0.5
0.5
0.5
0.5
0.5
0.5
0.5
0.5
0.5
0.5
0.5
0.5
0.5
0.5
0.5
0.5
0.5
0.5
0.5
0.5
0.5
0.5
0.5
0.5
0.5
0.5
0.5
0.5
0.5
0.5
0.5
0.5
0.5
0.5
SCALARS quat double 4
LOOKUP_TABLE default
0.962943 0.0904507 -0.0544117 0.248191 
0.784825 0.148949 0.601485 0.00887263 
0.989217 0.0960008 -0.0526307 -0.0972798 
-0.371583 -0.473408 -0.557687 -0.571661 
0.0742053 0.707193 -0.36928 0.598334 
0.802914 -0.273095 -0.200915 0.490288 
0.11156 -0.307759 -0.311979 0.891912 
0.87869 0.0492441 0.339713 0.331772 
-0.110987 0.423056 0.899199 -0.0121259 
0.093712 0.0890623 -0.00669031 0.991585 
0.921821 -0.143721 -0.0964287 0.346832 
0.169572 -0.913001 -0.239599 -0.283314 
0.0869472 0.402563 -0.0447945 0.910152 
0.59285 0.714551 0.357203 -0.101746 
0.338917 0.815914 -0.183335 0.431055 
0.996029 0.0810991 -0.0366129 -0.00295931 
0.640649 0.0520799 -0.0361555 0.765212 
0.988561 0.0814803 -0.024415 0.124544 
0.972967 0.112613 -0.0903225 0.180266 
-0.769121 0.161578 0.610634 0.0973187 
0.8366 0.12784 0.508949 -0.157251 
-0.307519 0.850315 -0.288985 0.314459 
0.778149 -0.278145 -0.476658 -0.29986 
0.544057 0.742598 -0.372578 -0.117198 
0.983951 0.105168 -0.0988206 0.104954 
0.932268 0.15563 -0.17105 0.278205 
-0.589278 0.716936 -0.311294 0.204575 
0.976887 0.158686 -0.110076 -0.09162 
0.68368 -0.414122 -0.434617 0.414961 
-0.160709 0.38932 -0.335906 0.842479 
0.73619 0.350866 0.505389 0.281956 
0.403854 -0.661118 -0.162063 -0.611196 
0.131457 -0.048386 -0.948983 0.282504 
0.174259 0.124136 0.0733869 0.974083 
0.552665 0.733325 0.185084 -0.350057 
0.406695 -0.143398 0.0530951 0.900676 
-0.29631 0.505982 -0.493108 0.642672 
0.244532 0.331697 0.282223 0.866332 
0.728436 -0.630605 -0.256556 0.0767913 
0.578805 0.643225 -0.104569 -0.490216 
0.945877 0.143767 -0.158852 0.24375 
0.701168 0.192654 -0.105191 0.678368 
0.977277 -0.206585 -0.0463416 0.0102755 
0.00999947 0.819334 0.552339 -0.153344 
0.728982 -0.574543 -0.317566 -0.194006 
0.340713 0.27693 -0.681215 0.585807 
0.54826 -0.181372 0.144651 -0.803487 
-0.951632 0.138412 -0.178506 0.208265 
0.411467 0.775405 -0.385062 0.284903 
-0.843145 0.506753 0.0992218 -0.149875 
0.927624 0.29545 -0.204667 -0.101655 
0.319862 -0.115056 0.890222 -0.303242 
0.821912 -0.08315 0.563423 -0.010063 
-0.664608 0.425216 -0.613887 -0.0251052 
-0.503908 0.492476 0.48364 -0.519267 
-0.612922 0.473866 0.479562 -0.412065 
0.124591 0.216312 0.964275 -0.0886529 
0.0830103 -0.0487687 -0.843143 -0.528999 
-0.186167 0.0395659 0.783207 -0.591915 
0.357511 -0.907388 -0.219345 0.026849 
-0.444328 0.232539 0.662082 -0.556907 
-0.860942 -0.0714284 0.0405301 0.502031 
-0.280639 -0.714709 0.131211 0.62707 
0.101883 0.236886 0.957992 0.125527 
-0.109727 0.029926 0.991779 -0.0586429 
0.91494 0.246627 -0.28298 -0.148266 
-0.130937 -0.953234 -0.183175 0.201613 
0.961812 -0.162992 -0.127921 0.17885 
0.894765 0.0130417 0.409177 -0.178323 
-0.925888 -0.0894379 -0.11161 -0.34968 
0.637636 -0.397419 -0.2783 0.598354 
-0.565041 -0.745649 -0.34307 -0.0838948 
0.36033 0.3654 0.0367853 -0.857492 
-0.584125 0.74602 -0.294659 -0.12421 
0.944162 -0.245969 0.0221542 -0.218097 
0.960347 0.115238 -0.116798 -0.225414 
0.549646 -0.0954997 -0.636865 0.532139 
0.882016 -0.263365 0.373283 -0.115523 
-0.578371 -0.204692 -0.124297 0.779833 
-0.544447 0.177921 -0.108884 -0.812444 
0.890004 0.257197 0.0225228 -0.375812 
-0.344453 0.874242 0.0376128 0.340057 
0.934291 -0.127188 0.309479 -0.123069 
-0.227589 0.826197 -0.277814 0.434075 
0.970617 -0.217145 0.00530581 -0.103547 
0.753103 -0.479014 -0.416339 0.17333 
-0.173853 -0.328242 0.100879 -0.92296 
0.766019 0.429944 0.267983 -0.395661 
0.320599 0.926067 0.0747331 -0.184474 
-0.177346 0.555441 -0.65812 0.476353 
0.868923 -0.225524 0.369961 -0.239251 
-0.815307 0.361203 -0.451847 0.0253024 
0.882824 -0.0315604 -0.39553 0.251358 
0.842921 -0.370195 0.389621 0.0252057 
0.79288 0.024906 0.362425 -0.489253 
0.281316 -0.541152 -0.401046 -0.683504 
0.293733 -0.790546 0.479697 0.242175 
0.23046 -0.224688 -0.717649 0.617562 
-0.602214 0.590182 0.159311 -0.513462 
0.982249 -0.114385 -0.0176286 -0.147622 
0.841262 -0.0811965 -0.106057 -0.523868 
0.30448 0.5277 0.737595 0.291166 
-0.0203857 0.43887 -0.89635 0.0594545 
-0.62009 -0.592437 -0.509979 -0.0665508 
-0.220558 -0.0854016 -0.387923 0.890829 
0.94289 -0.15224 0.250482 0.158244 
-0.770723 0.492128 0.250879 -0.317578 
0.119837 0.740679 0.659181 -0.0501454 
0.822165 0.442506 -0.111186 -0.340397 
0.010378 0.211155 -0.974957 0.0690263 
0.275532 -0.588416 -0.286862 0.70396 
-0.398604 -0.303222 0.667012 0.551603 
-0.0764093 -0.379185 0.252931 -0.886796 
0.817498 -0.263113 0.477648 0.185261 
-0.235258 0.0653328 0.0898794 0.96556 
0.903625 -0.355794 0.238464 0.00272453 
0.0144229 -0.803615 0.5935 0.0418705 
0.45063 -0.0770014 -0.397504 0.795609 
0.8855 0.0906646 0.0858413 0.44755 
0.238441 0.157893 -0.82138 0.493509 
-0.0233369 0.0901554 0.461285 -0.882351 
-0.126405 -0.270053 -0.725919 0.619787 
0.331658 -0.459077 -0.419818 -0.709228 
-0.931123 -0.222279 -0.187233 0.220329 
0.754346 -0.615742 0.00308579 0.227629 
0.776429 0.296586 -0.532529 -0.160022 
0.419889 0.633546 0.556453 -0.335668 
0.515365 0.278877 0.192581 -0.787108 
-0.465127 0.264702 0.827542 -0.169599 
0.445054 -0.44661 0.704176 0.326501 
-0.0166488 0.501152 0.73061 -0.463442 
-0.993878 -0.0666588 -0.0499983 0.072543 
-0.0742126 -0.590508 -0.803342 -0.020859 
0.21001 0.208079 -0.949062 0.108999 
0.120251 -0.910444 0.217625 0.330562 
0.138356 -0.0535744 0.817796 0.556055 
0.273711 0.741634 0.222225 0.570682 
-0.677761 -0.72668 0.0596598 -0.094955 
0.311975 0.911994 -0.176265 -0.199674 
-0.0523782 0.814497 -0.577579 0.0159425 
-0.514513 0.0695304 -0.821746 0.234897 
0.438807 -0.261959 0.295738 0.807072 
-0.0991733 0.500506 -0.114333 0.8524 
0.934703 -0.276476 -0.185107 0.125006 
0.0178961 -0.508392 -0.780186 -0.364044 
-0.466181 -0.813609 0.24386 0.247483 
0.728043 -0.530838 0.338848 -0.270825 
0.280613 -0.571703 0.0959649 -0.764986 