# vtk DataFile Version 2.0
Generated by NetDEM
ASCII 
DATASET POLYDATA
POINTS 475 double
-0.418479 -0.406665 -0.463595 
-0.444753 -0.206032 -0.450032 
-0.413296 -0.00594989 -0.465093 
-0.449288 0.114001 -0.450021 
-0.449494 0.348797 -0.450042 
-0.271552 -0.429359 -0.45901 
-0.308014 -0.20697 -0.450024 
-0.195488 -0.00916998 -0.450014 
-0.173265 0.17176 -0.463811 
-0.252683 0.367133 -0.463377 
-0.0547835 -0.397951 -0.461155 
-0.143827 -0.135896 -0.450013 
-0.0560595 -0.0868822 -0.450051 
0.0356907 0.178943 -0.452323 
-0.0311864 0.319217 -0.44136 
0.193039 -0.400826 -0.4629 
0.168974 -0.210185 -0.463125 
0.173027 -0.00795497 -0.462829 
0.160317 0.20954 -0.465049 
0.303032 0.404132 -0.412649 
0.450051 -0.407577 -0.450036 
0.431184 -0.302631 -0.450014 
0.338375 -0.0120005 -0.450009 
0.380816 0.0911799 -0.450028 
0.371028 0.438862 -0.465054 
-0.42742 -0.405702 -0.392314 
-0.449992 -0.237013 -0.346581 
-0.409826 -0.0180084 -0.3844 
-0.449427 0.176362 -0.371857 
-0.446373 0.449713 -0.450007 
-0.329616 -0.408773 -0.398803 
-0.224858 -0.173899 -0.405419 
-0.154742 -0.0990733 -0.20254 
-0.310031 0.155579 -0.462326 
-0.145411 0.402175 -0.446847 
-0.0863031 -0.388593 -0.39492 
0.318575 -0.237889 -0.0982966 
-0.0313887 -0.0150371 -0.301562 
0.0260717 0.25963 -0.449853 
0.118339 0.301242 -0.425282 
0.205198 -0.412691 -0.389452 
0.165608 -0.205481 -0.389748 
0.174739 0.012589 -0.38526 
0.195958 0.112283 -0.456328 
0.287819 0.374817 -0.318283 
0.396673 -0.450013 -0.376932 
0.437538 -0.355661 -0.365479 
0.273465 -0.200953 -0.450007 
0.449999 0.139001 -0.39598 
0.425189 0.339675 -0.4562 
-0.434836 -0.439707 -0.326364 
-0.317057 -0.204722 -0.350466 
-0.316496 -0.0210556 -0.357926 
-0.290963 0.266358 -0.450014 
-0.440646 0.275385 -0.382772 
-0.182384 -0.373321 -0.451672 
0.204282 -0.327676 -0.213612 
-0.234877 -0.06937 -0.150718 
-0.176306 0.0787665 -0.450288 
-0.348351 0.334951 -0.330587 
0.0442265 -0.437846 -0.449585 
0.209609 -0.284365 -0.0952088 
0.212324 0.0699174 -0.187209 
-0.0363574 0.223256 -0.383778 
0.255498 0.331215 -0.463895 
0.204819 -0.435304 -0.317712 
0.0506358 -0.0919937 -0.449962 
0.162586 0.0550873 -0.328523 
0.273731 0.0665049 -0.443871 
0.111224 0.136964 -0.398574 
0.294028 -0.450003 -0.380853 
0.378842 -0.216675 -0.450045 
0.381751 -0.107346 -0.45005 
0.450027 0.233946 -0.364611 
0.438038 0.255022 -0.45999 
-0.434939 -0.45267 -0.243701 
-0.176091 -0.170304 -0.302564 
-0.240331 -0.00391621 -0.351213 
-0.281847 0.104037 -0.394646 
-0.357994 0.144682 -0.328841 
-0.160857 -0.446821 -0.390014 
-0.130335 -0.0562613 -0.390454 
-0.24458 0.047667 -0.205484 
-0.0560322 0.126399 -0.442477 
-0.357154 0.372862 -0.40594 
0.0968491 -0.452013 -0.354522 
0.45 -0.321562 -0.0181844 
-0.191908 -0.253844 -0.3552 
0.0209092 0.0476176 -0.450075 
0.0656554 0.396412 -0.408322 
0.263465 -0.440771 -0.236127 
0.161012 -0.308708 -0.377237 
0.126691 0.0635525 -0.265568 
0.260581 0.176815 -0.445303 
0.155199 0.45 -0.450007 
0.356873 -0.315154 -0.322519 
0.449997 -0.105706 -0.376997 
0.384507 0.166949 -0.32576 
0.330829 0.30808 -0.412637 
0.430703 0.367054 -0.375992 
-0.39107 -0.439066 -0.16805 
-0.373545 -0.364762 -0.112168 
-0.300863 -0.0411241 -0.26387 
-0.376849 0.0722132 -0.395203 
-0.449993 0.382355 -0.355833 
-0.261232 -0.431927 -0.358874 
-0.0844254 -0.127374 -0.334664 
-0.2494 0.032494 -0.105562 
-0.00607366 -0.0229616 -0.393158 
-0.423042 0.241969 -0.464027 
0.0770568 -0.341212 -0.411074 
0.359607 -0.214054 -0.0102752 
0.015488 -0.120253 -0.345251 
0.0319193 0.0430007 -0.353995 
-0.00184573 0.438641 -0.465049 
0.304101 -0.386104 -0.203782 
0.259718 -0.321434 -0.348405 
0.0434651 0.0717968 -0.252573 
0.236838 0.231588 -0.376444 
0.349042 0.450013 -0.259495 
0.345853 -0.412118 -0.299635 
0.450019 -0.207319 -0.380466 
0.449843 -0.0335924 -0.450007 
0.330634 0.209059 -0.398724 
0.397255 0.449821 -0.36933 
-0.461067 -0.452654 -0.118493 
-0.319746 -0.146127 -0.269478 
-0.451162 -0.0384466 -0.314214 
-0.231656 0.176978 -0.347189 
-0.314357 0.437395 -0.343926 
-0.161332 -0.378249 -0.329078 
-0.0916065 -0.230159 -0.329689 
-0.168469 -0.153635 -0.119857 
-0.134873 0.145298 -0.391286 
-0.230436 0.325333 -0.394253 
-0.101556 -0.304625 -0.374896 
0.29871 -0.323132 -0.0499339 
0.449997 0.0505048 -0.150373 
0.0506033 0.118318 -0.325794 
-0.110547 0.313812 -0.397509 
0.178828 -0.423364 -0.201226 
0.238053 -0.142634 -0.386079 
0.111884 -0.0200348 -0.200206 
0.201327 0.3095 -0.333822 
0.206052 0.38449 -0.393811 
0.45 -0.448139 -0.292348 
0.33648 -0.1765 -0.368887 
0.251631 -0.061539 -0.445401 
0.449936 0.0546987 -0.342155 
0.438129 0.398458 -0.293618 
-0.443529 -0.457377 0.00544409 
-0.235398 -0.168546 -0.220658 
-0.42718 -0.132427 -0.389728 
-0.207976 0.274528 -0.325904 
-0.327389 0.233618 -0.362837 
-0.140742 -0.310233 -0.280362 
0.12131 -0.449995 -0.0675219 
-0.304207 0.361348 -0.133366 
-0.10806 0.275915 -0.313198 
-0.220214 0.442749 -0.403291 
-0.00814846 -0.339056 -0.332444 
0.139856 -0.214844 -0.11564 
-0.164994 -0.0709327 -0.297875 
0.0236144 0.191838 -0.274873 
0.00699191 0.293669 -0.335448 
0.0893435 -0.430595 -0.264064 
0.133824 -0.0988191 -0.397578 
0.257897 -0.121329 -0.248941 
0.226641 0.183104 -0.316372 
0.145621 0.450004 -0.348486 
0.392038 -0.224125 -0.300746 
0.349563 -0.077729 -0.360132 
0.323385 0.063863 -0.372879 
0.398822 0.298734 -0.308177 
0.446128 0.373796 -0.203655 
-0.330875 -0.441006 -0.0319807 
-0.446303 -0.0880937 -0.225344 
-0.357805 0.00884427 -0.221084 
-0.44386 0.089103 -0.322929 
-0.422638 0.260076 -0.285671 
-0.270992 -0.309941 -0.417277 
-0.166463 -0.288004 -0.17939 
-0.145969 0.390969 -0.0481698 
-0.130169 0.189269 -0.320782 
-0.144582 0.442262 -0.332768 
0.0120667 -0.432885 -0.350017 
0.0140856 -0.107495 -0.246079 
0.0602164 -0.218494 -0.439452 
-0.0381516 0.267996 -0.23284 
-0.006257 0.414579 -0.36791 
0.0847672 -0.435554 -0.158476 
0.0935178 -0.0428812 -0.325379 
0.30403 -0.164186 -0.166394 
0.203022 0.140687 -0.253257 
0.24919 0.450008 -0.264914 
0.450025 -0.311448 -0.276669 
0.450007 -0.144019 -0.284651 
0.363658 0.0403324 -0.28443 
0.315369 0.24369 -0.305798 
0.381994 0.427153 -0.183327 
-0.241506 -0.44147 -0.0767921 
-0.449953 0.232682 -0.193391 
-0.294802 0.20345 -0.169131 
-0.192688 0.0778446 -0.333762 
-0.381329 0.450001 -0.270751 
-0.216318 -0.357299 -0.224413 
-0.0450429 -0.272675 -0.252059 
0.0106739 -0.245656 -0.173448 
-0.164864 0.114338 -0.240605 
-0.16736 0.35418 -0.321902 
-0.042575 -0.393056 -0.277204 
-0.0339323 -0.203353 0.435898 
-0.0251084 0.202798 -0.153855 
-0.0677214 0.125746 -0.261779 
0.115473 0.366321 -0.310838 
0.268448 -0.42593 -0.118112 
0.212587 -0.200451 -0.305892 
0.300177 -0.109542 -0.0900425 
0.152171 0.229653 -0.272527 
0.22405 0.331664 -0.239057 
0.41795 -0.38454 -0.21648 
0.445885 -0.231453 -0.216811 
0.437782 -0.0373573 -0.305044 
0.305435 0.127697 -0.276978 
0.407723 0.408045 -0.111605 
-0.227849 -0.333836 -0.114481 
-0.43968 -0.275325 -0.254631 
-0.420473 0.336651 -0.0831321 
-0.351132 0.322003 -0.026918 
-0.449928 0.447744 0.0572767 
-0.137112 -0.414442 -0.236462 
-0.0512549 0.128069 -0.0368861 
-0.283103 -0.0675452 0.157869 
-0.188222 0.178127 -0.172816 
-0.162437 0.336686 -0.212046 
-0.0576988 -0.386726 -0.191034 
-0.127057 -0.16901 0.241676 
-0.128165 -0.0432661 -0.123805 
0.00359307 0.112383 -0.182517 
0.0241973 0.446768 -0.272676 
0.297108 -0.326734 -0.138123 
0.256791 -0.296874 -0.278321 
0.35772 -0.0474801 -0.0356469 
0.160282 0.270138 -0.197212 
0.204668 0.411473 -0.110828 
0.366421 -0.450018 -0.161238 
0.449343 -0.19633 -0.0506842 
0.317775 0.145893 0.0449357 
0.449328 0.150787 -0.152768 
0.429586 0.394054 -0.0293845 
-0.300559 -0.293871 -0.289467 
-0.124788 -0.196034 -0.22052 
-0.322204 -0.0287992 -0.128873 
-0.220882 0.215967 -0.245893 
-0.421928 0.449552 -0.179371 
-0.238612 -0.427431 -0.170512 
0.106678 -0.285361 -0.284692 
-0.30608 0.254892 -0.0948204 
-0.244301 0.303676 -0.167696 
-0.157251 0.437389 -0.216619 
0.0116899 -0.378522 -0.132268 
0.450045 -0.394114 0.0507807 
0.0822202 0.438368 -0.161463 
-0.0697781 0.406198 -0.313554 
-0.0314897 0.447313 -0.207008 
0.36334 -0.397131 -0.0718501 
0.376536 -0.104369 -0.135338 
0.197966 -0.0338833 -0.266664 
0.226016 0.197729 -0.176496 
0.0834429 0.23551 -0.364913 
0.370356 -0.299657 -0.193243 
0.358494 -0.148707 -0.244133 
0.446741 0.0806943 -0.24565 
0.449074 0.218909 -0.265743 
0.410017 0.449668 0.0216794 
-0.343698 -0.409307 0.0568853 
-0.135867 -0.339522 -0.0529887 
-0.433104 -0.111241 -0.126191 
-0.449984 0.0951402 -0.148266 
-0.351646 0.201495 -0.246657 
-0.142729 -0.440196 -0.13639 
-0.0604587 -0.321348 -0.116098 
-0.235521 0.438792 -0.282427 
-0.283405 0.31769 -0.272934 
-0.202863 0.433618 -0.120395 
0.0334895 -0.406388 -0.0471225 
-0.114241 0.449991 0.194098 
0.0254702 0.183059 -0.069874 
-0.0701223 0.310045 -0.171043 
0.007366 0.374529 -0.148743 
0.279749 -0.42864 0.0521778 
0.0577626 -0.0930693 0.231522 
0.138401 -0.029829 -0.109342 
0.284351 0.175499 -0.113867 
0.0829985 0.24816 -0.127114 
0.406508 -0.285978 -0.100991 
0.450001 -0.162297 -0.144707 
0.334705 -0.0532469 -0.264331 
0.449994 0.272724 -0.181472 
0.302293 0.405432 0.033313 
-0.276622 -0.351649 -0.032616 
-0.410883 0.00319139 -0.152986 
-0.36539 -0.320165 0.0870605 
-0.426711 0.136227 -0.23641 
-0.449999 0.449569 -0.0833932 
-0.171286 -0.426352 0.00167484 
-0.147255 -0.325607 0.0455469 
-0.287891 0.0833281 -0.289674 
-0.135857 0.278165 -0.0968459 
-0.253079 0.372306 -0.0438101 
-0.0227588 -0.418903 0.0198582 
-0.423984 -0.176265 -0.26705 
0.00327996 -0.0157572 -0.207773 
-0.0435613 0.295716 -0.0629016 
-0.0130907 0.438742 -0.0890177 
0.118468 -0.396163 0.055438 
0.433789 0.00841845 0.103065 
0.0965802 -0.0411244 -0.0180304 
0.306028 0.334275 -0.17935 
0.277173 0.449999 -0.16891 
0.376874 -0.449898 0.0116905 
0.44983 -0.0160287 0.227367 
0.249293 -0.0686676 -0.338939 
0.352981 0.251033 -0.166649 
0.442524 0.450018 0.109316 
-0.331661 -0.349781 0.288321 
-0.376264 -0.2641 -0.098793 
-0.430067 0.105651 -0.0646246 
-0.394529 0.350346 -0.174714 
-0.450055 0.352093 -0.257785 
-0.120426 -0.440237 0.168184 
-0.0583895 -0.160449 -0.153643 
-0.222206 0.286559 -0.0422515 
-0.10216 0.379252 -0.136182 
-0.0850528 0.425561 6.37111e-05 
-0.06987 -0.435674 0.097756 
0.0759332 -0.167647 -0.195517 
-0.0632158 0.0676989 -0.116876 
0.0257147 0.249853 -0.00435806 
0.00686292 0.414058 -0.0119032 
0.12968 -0.339102 -0.00424468 
0.17141 -0.191343 -0.219203 
0.131657 0.160739 -0.0782712 
0.307379 0.219896 -0.032172 
0.17448 0.448929 -0.198489 
0.45 -0.424089 -0.112674 
0.359416 -0.266861 0.0778804 
0.413795 -0.0265558 -0.208553 
0.376375 0.168915 -0.218687 
0.434617 0.260267 0.427584 
-0.427136 -0.398032 0.102237 
-0.449983 -0.213847 -0.154586 
-0.372628 0.217309 -0.0497523 
-0.449825 0.0839499 0.0840988 
-0.450014 0.202842 -0.0978903 
-0.221923 -0.408679 0.0897196 
-0.263089 -0.0987075 -0.0594295 
-0.324641 -0.130776 -0.138722 
-0.196482 0.363542 0.043668 
-0.123545 0.394352 0.0942877 
0.061081 -0.192385 0.00911976 
-0.132515 -0.223352 -0.0577064 
0.22661 0.141737 -0.00555149 
0.128518 0.305913 0.101236 
0.0057346 0.417531 0.0863441 
0.0948935 -0.215967 0.398137 
0.450409 -0.0825205 0.0125909 
0.282735 0.0859731 0.140425 
0.192048 0.222356 -0.0705855 
0.110936 0.353199 0.335565 
0.397437 -0.0749202 0.134888 
0.448853 -0.23954 0.0395016 
0.376122 0.0146631 -0.093298 
0.429822 0.112698 -0.0621874 
0.327913 0.321469 -0.0825054 
-0.426056 -0.175875 -0.0698648 
-0.422706 -0.258562 0.220417 
-0.38725 0.00301545 -0.0510322 
-0.449345 0.331659 0.282002 
-0.325081 0.449995 0.227395 
-0.229902 -0.353271 0.169501 
-0.269589 -0.313822 0.0495502 
-0.326557 0.0569085 0.0355836 
-0.134966 0.224516 -0.00888042 
-0.186064 0.346528 0.317206 
-0.159069 -0.415946 0.441083 
-0.145125 -0.0815166 -0.0326457 
0.132235 0.124261 0.0274041 
-0.156354 0.109096 -0.109797 
0.0265882 0.412575 0.168741 
0.023667 -0.293044 -0.0700862 
0.319796 -0.0898405 0.193021 
0.288163 0.0206297 -0.0208163 
0.174869 0.267069 0.0173466 
0.160689 0.322425 -0.122676 
0.359308 -0.330574 0.155113 
0.271672 -0.196016 0.035813 
0.397915 0.196537 0.0119357 
0.402282 0.229453 -0.0823783 
0.447439 0.274036 0.229914 
-0.350189 -0.396232 0.160026 
-0.34169 -0.210812 -0.196217 
-0.434492 -0.0360403 0.0465554 
-0.441507 0.123357 0.36986 
-0.306026 0.361518 0.0535056 
-0.0568126 -0.195297 0.0179203 
-0.168501 -0.242713 0.184202 
-0.233681 0.0511842 -0.00751978 
-0.168115 0.204722 0.34875 
-0.211386 0.410129 0.140106 
0.1734 -0.0600119 0.0525631 
-0.00431942 -0.075844 -0.127654 
-0.108767 -0.065969 0.43008 
0.079355 0.171112 0.308043 
-0.0725402 0.361177 0.267956 
0.313518 -0.434054 0.189571 
0.370605 -0.207202 0.363008 
0.192117 0.025577 -0.0121479 
0.231165 0.274205 0.0731839 
0.219712 0.449647 0.0631951 
0.439455 -0.151647 0.0864343 
0.193289 0.0588271 0.400508 
0.449618 0.0943777 0.034197 
0.411256 0.193223 0.110976 
0.407281 0.389406 0.199314 
-0.400558 -0.40659 0.223152 
-0.449754 -0.253959 0.345237 
-0.201042 -0.0331631 0.066778 
-0.389301 0.258356 0.0419529 
-0.387275 0.370026 0.111571 
-0.199764 -0.392508 0.244965 
-0.297804 0.00859401 0.4137 
-0.0920178 0.00399226 -0.000709873 
-0.299894 0.187412 0.0054776 
-0.242267 0.410025 0.23946 
0.120111 -0.416616 0.177989 
0.0622771 -0.1486 0.0949253 
0.0700806 0.0348173 0.0418696 
-0.0812824 0.192173 0.381546 
-0.0442989 0.425593 0.329266 
0.279579 -0.407009 0.341279 
0.203644 -0.109598 0.312873 
0.123321 0.120043 0.135405 
0.224529 0.174847 0.429081 
0.167915 0.416344 -0.0179609 
0.412445 -0.449778 0.124899 
0.372005 -0.195398 0.146947 
0.163945 -0.0664552 0.426464 
0.398523 0.19572 0.210123 
0.379605 0.446327 0.285568 
-0.428043 -0.432575 0.289636 
-0.391454 0.0219697 0.347268 
-0.414693 -0.00569903 0.175019 
-0.40295 0.19705 0.1725 
-0.413612 0.391515 0.207586 
-0.253689 -0.407668 0.35043 
-0.224794 -0.194536 0.317674 
-0.202312 -0.00122826 0.183689 
-0.314564 0.100609 0.422367 
-0.256629 0.450862 0.413041 
-0.015043 -0.426146 0.40806 
-0.024278 -0.176662 0.238268 
-0.0388193 0.046935 0.284799 
0.0319919 0.256075 0.223348 
0.000355781 0.219253 0.429907 
0.204825 -0.253047 0.156528 
0.173179 -0.167339 0.380667 
0.240049 -0.0303643 0.246311 
0.203545 0.17678 0.0941003 
0.0981416 0.416302 0.0545182 
0.402101 -0.399834 0.22127 
0.411637 -0.190465 0.241188 
0.377036 0.000186114 0.298848 
0.395891 0.19667 0.310078 
0.437116 0.351901 0.347638 
VERTICES 475 950
1 0
1 1
1 2
1 3
1 4
1 5
1 6
1 7
1 8
1 9
1 10
1 11
1 12
1 13
1 14
1 15
1 16
1 17
1 18
1 19
1 20
1 21
1 22
1 23
1 24
1 25
1 26
1 27
1 28
1 29
1 30
1 31
1 32
1 33
1 34
1 35
1 36
1 37
1 38
1 39
1 40
1 41
1 42
1 43
1 44
1 45
1 46
1 47
1 48
1 49
1 50
1 51
1 52
1 53
1 54
1 55
1 56
1 57
1 58
1 59
1 60
1 61
1 62
1 63
1 64
1 65
1 66
1 67
1 68
1 69
1 70
1 71
1 72
1 73
1 74
1 75
1 76
1 77
1 78
1 79
1 80
1 81
1 82
1 83
1 84
1 85
1 86
1 87
1 88
1 89
1 90
1 91
1 92
1 93
1 94
1 95
1 96
1 97
1 98
1 99
1 100
1 101
1 102
1 103
1 104
1 105
1 106
1 107
1 108
1 109
1 110
1 111
1 112
1 113
1 114
1 115
1 116
1 117
1 118
1 119
1 120
1 121
1 122
1 123
1 124
1 125
1 126
1 127
1 128
1 129
1 130
1 131
1 132
1 133
1 134
1 135
1 136
1 137
1 138
1 139
1 140
1 141
1 142
1 143
1 144
1 145
1 146
1 147
1 148
1 149
1 150
1 151
1 152
1 153
1 154
1 155
1 156
1 157
1 158
1 159
1 160
1 161
1 162
1 163
1 164
1 165
1 166
1 167
1 168
1 169
1 170
1 171
1 172
1 173
1 174
1 175
1 176
1 177
1 178
1 179
1 180
1 181
1 182
1 183
1 184
1 185
1 186
1 187
1 188
1 189
1 190
1 191
1 192
1 193
1 194
1 195
1 196
1 197
1 198
1 199
1 200
1 201
1 202
1 203
1 204
1 205
1 206
1 207
1 208
1 209
1 210
1 211
1 212
1 213
1 214
1 215
1 216
1 217
1 218
1 219
1 220
1 221
1 222
1 223
1 224
1 225
1 226
1 227
1 228
1 229
1 230
1 231
1 232
1 233
1 234
1 235
1 236
1 237
1 238
1 239
1 240
1 241
1 242
1 243
1 244
1 245
1 246
1 247
1 248
1 249
1 250
1 251
1 252
1 253
1 254
1 255
1 256
1 257
1 258
1 259
1 260
1 261
1 262
1 263
1 264
1 265
1 266
1 267
1 268
1 269
1 270
1 271
1 272
1 273
1 274
1 275
1 276
1 277
1 278
1 279
1 280
1 281
1 282
1 283
1 284
1 285
1 286
1 287
1 288
1 289
1 290
1 291
1 292
1 293
1 294
1 295
1 296
1 297
1 298
1 299
1 300
1 301
1 302
1 303
1 304
1 305
1 306
1 307
1 308
1 309
1 310
1 311
1 312
1 313
1 314
1 315
1 316
1 317
1 318
1 319
1 320
1 321
1 322
1 323
1 324
1 325
1 326
1 327
1 328
1 329
1 330
1 331
1 332
1 333
1 334
1 335
1 336
1 337
1 338
1 339
1 340
1 341
1 342
1 343
1 344
1 345
1 346
1 347
1 348
1 349
1 350
1 351
1 352
1 353
1 354
1 355
1 356
1 357
1 358
1 359
1 360
1 361
1 362
1 363
1 364
1 365
1 366
1 367
1 368
1 369
1 370
1 371
1 372
1 373
1 374
1 375
1 376
1 377
1 378
1 379
1 380
1 381
1 382
1 383
1 384
1 385
1 386
1 387
1 388
1 389
1 390
1 391
1 392
1 393
1 394
1 395
1 396
1 397
1 398
1 399
1 400
1 401
1 402
1 403
1 404
1 405
1 406
1 407
1 408
1 409
1 410
1 411
1 412
1 413
1 414
1 415
1 416
1 417
1 418
1 419
1 420
1 421
1 422
1 423
1 424
1 425
1 426
1 427
1 428
1 429
1 430
1 431
1 432
1 433
1 434
1 435
1 436
1 437
1 438
1 439
1 440
1 441
1 442
1 443
1 444
1 445
1 446
1 447
1 448
1 449
1 450
1 451
1 452
1 453
1 454
1 455
1 456
1 457
1 458
1 459
1 460
1 461
1 462
1 463
1 464
1 465
1 466
1 467
1 468
1 469
1 470
1 471
1 472
1 473
1 474
POINT_DATA 475
SCALARS id int 1
LOOKUP_TABLE default
0
1
2
3
4
5
6
7
8
9
10
11
12
13
14
15
16
17
18
19
20
21
22
23
24
25
26
27
28
29
30
31
32
33
34
35
36
37
38
39
40
41
42
43
44
45
46
47
48
49
50
51
52
53
54
55
56
57
58
59
60
61
62
63
64
65
66
67
68
69
70
71
72
73
74
75
76
77
78
79
80
81
82
83
84
85
86
87
88
89
90
91
92
93
94
95
96
97
98
99
100
101
102
103
104
105
106
107
108
109
110
111
112
113
114
115
116
117
118
119
120
121
122
123
124
125
126
127
128
129
130
131
132
133
134
135
136
137
138
139
140
141
142
143
144
145
146
147
148
149
150
151
152
153
154
155
156
157
158
159
160
161
162
163
164
165
166
167
168
169
170
171
172
173
174
175
176
177
178
179
180
181
182
183
184
185
186
187
188
189
190
191
192
193
194
195
196
197
198
199
200
201
202
203
204
205
206
207
208
209
210
211
212
213
214
215
216
217
218
219
220
221
222
223
224
225
226
227
228
229
230
231
232
233
234
235
236
237
238
239
240
241
242
243
244
245
246
247
248
249
250
251
252
253
254
255
256
257
258
259
260
261
262
263
264
265
266
267
268
269
270
271
272
273
274
275
276
277
278
279
280
281
282
283
284
285
286
287
288
289
290
291
292
293
294
295
296
297
298
299
300
301
302
303
304
305
306
307
308
309
310
311
312
313
314
315
316
317
318
319
320
321
322
323
324
325
326
327
328
329
330
331
332
333
334
335
336
337
338
339
340
341
342
343
344
345
346
347
348
349
350
351
352
353
354
355
356
357
358
359
360
361
362
363
364
365
366
367
368
369
370
371
372
373
374
375
376
377
378
379
380
381
382
383
384
385
386
387
388
389
390
391
392
393
394
395
396
397
398
399
400
401
402
403
404
405
406
407
408
409
410
411
412
413
414
415
416
417
418
419
420
421
422
423
424
425
426
427
428
429
430
431
432
433
434
435
436
437
438
439
440
441
442
443
444
445
446
447
448
449
450
451
452
453
454
455
456
457
458
459
460
461
462
463
464
465
466
467
468
469
470
471
472
473
474
SCALARS type int 1
LOOKUP_TABLE default
0
0
0
0
0
0
0
0
0
0
0
0
0
0
0
0
0
0
0
0
0
0
0
0
0
0
0
0
0
0
0
0
0
0
0
0
0
0
0
0
0
0
0
0
0
0
0
0
0
0
0
0
0
0
0
0
0
0
0
0
0
0
0
0
0
0
0
0
0
0
0
0
0
0
0
0
0
0
0
0
0
0
0
0
0
0
0
0
0
0
0
0
0
0
0
0
0
0
0
0
0
0
0
0
0
0
0
0
0
0
0
0
0
0
0
0
0
0
0
0
0
0
0
0
0
0
0
0
0
0
0
0
0
0
0
0
0
0
0
0
0
0
0
0
0
0
0
0
0
0
0
0
0
0
0
0
0
0
0
0
0
0
0
0
0
0
0
0
0
0
0
0
0
0
0
0
0
0
0
0
0
0
0
0
0
0
0
0
0
0
0
0
0
0
0
0
0
0
0
0
0
0
0
0
0
0
0
0
0
0
0
0
0
0
0
0
0
0
0
0
0
0
0
0
0
0
0
0
0
0
0
0
0
0
0
0
0
0
0
0
0
0
0
0
0
0
0
0
0
0
0
0
0
0
0
0
0
0
0
0
0
0
0
0
0
0
0
0
0
0
0
0
0
0
0
0
0
0
0
0
0
0
0
0
0
0
0
0
0
0
0
0
0
0
0
0
0
0
0
0
0
0
0
0
0
0
0
0
0
0
0
0
0
0
0
0
0
0
0
0
0
0
0
0
0
0
0
0
0
0
0
0
0
0
0
0
0
0
0
0
0
0
0
0
0
0
0
0
0
0
0
0
0
0
0
0
0
0
0
0
0
0
0
0
0
0
0
0
0
0
0
0
0
0
0
0
0
0
0
0
0
0
0
0
0
0
0
0
0
0
0
0
0
0
0
0
0
0
0
0
0
0
0
0
0
0
0
0
0
0
0
0
0
0
0
0
0
0
0
0
0
0
0
0
0
0
0
0
0
0
0
0
0
0
0
0
0
0
0
0
0
0
0
0
0
0
0
0
0
0
0
0
0
0
0
0
0
0
0
0
0
0
0
0
0
0
0
0
0
0
0
0
0
0
0
SCALARS damp_viscous double 1
LOOKUP_TABLE default
0
0
0
0
0
0
0
0
0
0
0
0
0
0
0
0
0
0
0
0
0
0
0
0
0
0
0
0
0
0
0
0
0
0
0
0
0
0
0
0
0
0
0
0
0
0
0
0
0
0
0
0
0
0
0
0
0
0
0
0
0
0
0
0
0
0
0
0
0
0
0
0
0
0
0
0
0
0
0
0
0
0
0
0
0
0
0
0
0
0
0
0
0
0
0
0
0
0
0
0
0
0
0
0
0
0
0
0
0
0
0
0
0
0
0
0
0
0
0
0
0
0
0
0
0
0
0
0
0
0
0
0
0
0
0
0
0
0
0
0
0
0
0
0
0
0
0
0
0
0
0
0
0
0
0
0
0
0
0
0
0
0
0
0
0
0
0
0
0
0
0
0
0
0
0
0
0
0
0
0
0
0
0
0
0
0
0
0
0
0
0
0
0
0
0
0
0
0
0
0
0
0
0
0
0
0
0
0
0
0
0
0
0
0
0
0
0
0
0
0
0
0
0
0
0
0
0
0
0
0
0
0
0
0
0
0
0
0
0
0
0
0
0
0
0
0
0
0
0
0
0
0
0
0
0
0
0
0
0
0
0
0
0
0
0
0
0
0
0
0
0
0
0
0
0
0
0
0
0
0
0
0
0
0
0
0
0
0
0
0
0
0
0
0
0
0
0
0
0
0
0
0
0
0
0
0
0
0
0
0
0
0
0
0
0
0
0
0
0
0
0
0
0
0
0
0
0
0
0
0
0
0
0
0
0
0
0
0
0
0
0
0
0
0
0
0
0
0
0
0
0
0
0
0
0
0
0
0
0
0
0
0
0
0
0
0
0
0
0
0
0
0
0
0
0
0
0
0
0
0
0
0
0
0
0
0
0
0
0
0
0
0
0
0
0
0
0
0
0
0
0
0
0
0
0
0
0
0
0
0
0
0
0
0
0
0
0
0
0
0
0
0
0
0
0
0
0
0
0
0
0
0
0
0
0
0
0
0
0
0
0
0
0
0
0
0
0
0
0
0
0
0
0
0
0
0
0
0
0
0
0
0
0
0
0
0
0
0
0
0
0
0
0
0
0
SCALARS damp_numerical double 1
LOOKUP_TABLE default
0.5
0.5
0.5
0.5
0.5
0.5
0.5
0.5
0.5
0.5
0.5
0.5
0.5
0.5
0.5
0.5
0.5
0.5
0.5
0.5
0.5
0.5
0.5
0.5
0.5
0.5
0.5
0.5
0.5
0.5
0.5
0.5
0.5
0.5
0.5
0.5
0.5
0.5
0.5
0.5
0.5
0.5
0.5
0.5
0.5
0.5
0.5
0.5
0.5
0.5
0.5
0.5
0.5
0.5
0.5
0.5
0.5
0.5
0.5
0.5
0.5
0.5
0.5
0.5
0.5
0.5
0.5
0.5
0.5
0.5
0.5
0.5
0.5
0.5
0.5
0.5
0.5
0.5
0.5
0.5
0.5
0.5
0.5
0.5
0.5
0.5
0.5
0.5
0.5
0.5
0.5
0.5
0.5
0.5
0.5
0.5
0.5
0.5
0.5
0.5
0.5
0.5
0.5
0.5
0.5
0.5
0.5
0.5
0.5
0.5
0.5
0.5
0.5
0.5
0.5
0.5
0.5
0.5
0.5
0.5
0.5
0.5
0.5
0.5
0.5
0.5
0.5
0.5
0.5
0.5
0.5
0.5
0.5
0.5
0.5
0.5
0.5
0.5
0.5
0.5
0.5
0.5
0.5
0.5
0.5
0.5
0.5
0.5
0.5
0.5
0.5
0.5
0.5
0.5
0.5
0.5
0.5
0.5
0.5
0.5
0.5
0.5
0.5
0.5
0.5
0.5
0.5
0.5
0.5
0.5
0.5
0.5
0.5
0.5
0.5
0.5
0.5
0.5
0.5
0.5
0.5
0.5
0.5
0.5
0.5
0.5
0.5
0.5
0.5
0.5
0.5
0.5
0.5
0.5
0.5
0.5
0.5
0.5
0.5
0.5
0.5
0.5
0.5
0.5
0.5
0.5
0.5
0.5
0.5
0.5
0.5
0.5
0.5
0.5
0.5
0.5
0.5
0.5
0.5
0.5
0.5
0.5
0.5
0.5
0.5
0.5
0.5
0.5
0.5
0.5
0.5
0.5
0.5
0.5
0.5
0.5
0.5
0.5
0.5
0.5
0.5
0.5
0.5
0.5
0.5
0.5
0.5
0.5
0.5
0.5
0.5
0.5
0.5
0.5
0.5
0.5
0.5
0.5
0.5
0.5
0.5
0.5
0.5
0.5
0.5
0.5
0.5
0.5
0.5
0.5
0.5
0.5
0.5
0.5
0.5
0.5
0.5
0.5
0.5
0.5
0.5
0.5
0.5
0.5
0.5
0.5
0.5
0.5
0.5
0.5
0.5
0.5
0.5
0.5
0.5
0.5
0.5
0.5
0.5
0.5
0.5
0.5
0.5
0.5
0.5
0.5
0.5
0.5
0.5
0.5
0.5
0.5
0.5
0.5
0.5
0.5
0.5
0.5
0.5
0.5
0.5
0.5
0.5
0.5
0.5
0.5
0.5
0.5
0.5
0.5
0.5
0.5
0.5
0.5
0.5
0.5
0.5
0.5
0.5
0.5
0.5
0.5
0.5
0.5
0.5
0.5
0.5
0.5
0.5
0.5
0.5
0.5
0.5
0.5
0.5
0.5
0.5
0.5
0.5
0.5
0.5
0.5
0.5
0.5
0.5
0.5
0.5
0.5
0.5
0.5
0.5
0.5
0.5
0.5
0.5
0.5
0.5
0.5
0.5
0.5
0.5
0.5
0.5
0.5
0.5
0.5
0.5
0.5
0.5
0.5
0.5
0.5
0.5
0.5
0.5
0.5
0.5
0.5
0.5
0.5
0.5
0.5
0.5
0.5
0.5
0.5
0.5
0.5
0.5
0.5
0.5
0.5
0.5
0.5
0.5
0.5
0.5
0.5
0.5
0.5
0.5
0.5
0.5
0.5
0.5
0.5
0.5
0.5
0.5
0.5
0.5
0.5
0.5
0.5
0.5
0.5
0.5
0.5
0.5
0.5
0.5
0.5
0.5
0.5
0.5
0.5
0.5
0.5
0.5
0.5
0.5
0.5
0.5
0.5
0.5
0.5
0.5
0.5
0.5
0.5
0.5
0.5
0.5
0.5
0.5
0.5
0.5
0.5
0.5
0.5
0.5
0.5
0.5
0.5
0.5
SCALARS quat double 4
LOOKUP_TABLE default
0.966993 0.0730761 -0.0425368 0.240365 
0.732415 0.235847 0.633716 0.0796744 
0.986442 0.0850459 -0.115654 -0.07952 
-0.390856 -0.458813 -0.585966 -0.541632 
0.0622184 0.640057 -0.371165 0.669846 
0.795646 -0.276109 -0.206938 0.497883 
0.487072 -0.429292 -0.00626637 0.760546 
0.898796 0.0295705 0.30978 0.308751 
-0.117631 0.447453 0.88653 0.00363205 
0.144424 0.090374 -0.013694 0.985285 
0.909739 -0.14138 -0.102456 0.376682 
0.247695 -0.837162 -0.434525 -0.221351 
0.0837175 0.375316 -0.00075763 0.923108 
0.590017 0.726496 0.343155 -0.0795568 
0.348101 0.814054 -0.137535 0.444102 
0.995675 0.0825981 -0.0390247 -0.0169024 
0.642378 0.0477164 -0.0409753 0.763802 
0.981454 0.0859254 -0.0205896 0.170121 
0.968511 0.114642 -0.0878217 0.202807 
-0.83538 0.154692 0.523072 0.0678697 
0.841315 0.100958 0.507459 -0.156465 
-0.326286 0.830629 -0.306226 0.331389 
0.802222 -0.242937 -0.494243 -0.230534 
0.572801 0.729446 -0.350531 -0.130137 
0.984111 0.104244 -0.0986481 0.104529 
0.954421 0.162238 -0.167235 0.186525 
-0.109205 0.841529 0.207836 0.486526 
0.985087 0.158288 -0.0283463 -0.0611948 
0.504435 -0.451481 -0.458848 0.575472 
-0.207194 0.387251 -0.334038 0.833982 
0.748356 0.324379 0.498141 0.294274 
0.395371 -0.532369 -0.377837 -0.646145 
0.033895 -0.039844 -0.981978 0.18161 
0.17229 0.0721156 -0.0589913 0.98063 
0.5528 0.703139 0.210039 -0.39483 
0.270789 -0.205689 0.111894 0.933726 
-0.335159 0.392823 -0.46533 0.718907 
0.213042 0.391375 0.267335 0.854383 
0.718119 -0.64714 -0.25355 0.0350375 
0.56083 0.662605 -0.0853677 -0.489016 
0.953169 0.155354 -0.124887 0.227457 
0.683859 0.185985 -0.1135 0.696322 
0.982659 -0.179793 -0.026063 0.0371072 
0.0220227 0.817424 0.559198 -0.136498 
0.672398 -0.560622 -0.405791 -0.262521 
0.426187 0.245664 -0.743125 0.453628 
0.558463 -0.182487 0.157 -0.793832 
-0.943756 0.239195 -0.126846 0.189793 
0.426431 0.760594 -0.387107 0.299668 
-0.833977 0.513158 0.111514 -0.169455 
0.924718 0.304604 -0.216097 -0.0735828 
0.302322 -0.0422634 0.951324 -0.0424005 
0.822009 -0.032324 0.568236 -0.0191074 
-0.689365 0.415506 -0.590183 -0.0617636 
-0.48149 0.647637 0.378028 -0.453683 
-0.590795 0.438857 0.508871 -0.44656 
0.0986338 0.177998 0.96352 -0.173832 
0.237395 -0.112174 -0.765148 -0.587885 
-0.171508 -0.0160256 0.782928 -0.597789 
0.306402 -0.929086 -0.206734 0.0133308 
-0.466117 0.245451 0.641893 -0.557191 
-0.780149 0.0244763 0.208837 0.589199 
-0.255536 -0.679041 0.111099 0.679162 
-0.0180407 0.247694 0.965081 0.0833089 
-0.102507 0.0356019 0.992736 -0.0519702 
0.915469 0.275549 -0.264003 -0.127642 
-0.162163 -0.949631 -0.151782 0.221057 
0.970025 -0.146191 -0.12397 0.149369 
0.896696 -0.0215727 0.407691 -0.171052 
-0.904191 -0.13735 -0.150562 -0.375373 
0.404173 -0.436334 -0.692787 0.407803 
-0.556707 -0.74267 -0.361898 -0.0868804 
0.361908 0.33641 0.0227157 -0.8691 
-0.549887 0.776937 -0.290534 -0.0978939 
0.950775 -0.236565 0.014002 -0.199667 
0.961862 0.13562 -0.122555 -0.203494 
0.484243 -0.108783 -0.579265 0.646628 
0.889404 -0.188654 0.406745 -0.0890373 
-0.547292 -0.144877 0.0500363 0.822787 
-0.608815 0.12351 -0.183512 -0.761849 
0.857333 0.344516 -0.116086 -0.364436 
-0.45115 0.849836 0.0257667 0.271253 
0.945014 -0.0900322 0.307104 -0.0672981 
-0.248622 0.811656 -0.266812 0.456304 
0.99624 -0.0849976 0.00440554 -0.0161692 
0.805046 -0.421642 -0.388373 0.152597 
-0.306749 -0.441854 0.0438391 -0.841872 
0.637805 0.617683 0.43283 -0.155981 
0.318037 0.919064 0.0742873 -0.220578 
-0.175872 0.538017 -0.624581 0.538056 
0.886176 -0.26793 0.265927 -0.268679 
-0.780595 0.502738 -0.367119 0.0561252 
0.903207 -0.0485049 -0.359211 0.229851 
0.879876 -0.26603 0.388298 0.0653568 
0.798055 -0.0670773 0.447035 -0.398459 
0.49679 -0.636005 -0.140159 -0.573631 
0.327568 -0.785857 0.478426 0.215026 
0.357616 -0.0100667 -0.720717 0.593782 
-0.63499 0.581614 0.0291526 -0.507605 
0.989257 -0.0425435 -0.0564275 -0.127967 
0.85495 -0.0626503 -0.114765 -0.50196 
0.296207 0.56072 0.695199 0.338457 
-0.082498 0.419617 -0.903865 0.0119525 
-0.718432 -0.566142 -0.375407 -0.149693 
-0.651607 -0.386353 -0.503225 -0.415819 
0.872382 -0.273643 0.36946 0.166036 
-0.481725 0.616389 0.0825122 -0.617412 
0.0987105 0.681731 0.722486 -0.0592686 
0.814236 0.410325 -0.111723 -0.395186 
0.0129603 0.196032 -0.978188 0.0674719 
0.348556 -0.640945 -0.370784 0.574646 
-0.551078 -0.292199 0.509039 0.593137 
-0.0766168 -0.504139 0.331071 -0.793955 
0.81264 -0.260706 0.497079 0.156719 
-0.218832 0.0859393 0.116109 0.965011 
0.939786 -0.186541 0.273948 0.0834082 
0.0154115 -0.86449 0.496958 -0.073836 
0.470835 -0.058692 -0.39019 0.789064 
0.888334 0.0899797 0.0881643 0.44158 
0.283596 0.131326 -0.791811 0.524749 
0.0762158 0.118268 0.48667 -0.862181 
-0.12357 -0.269728 -0.684158 0.666263 
0.362151 -0.437431 -0.413149 -0.711905 
-0.939392 -0.236846 -0.15942 0.189819 
0.794181 -0.533263 0.0953897 0.275333 
0.798129 0.275697 -0.510216 -0.163284 
0.534329 0.593001 0.492001 -0.34753 
0.437089 0.37226 0.213165 -0.790529 
-0.751745 0.082407 0.64469 -0.11164 
0.47034 -0.362472 0.724855 0.349255 
0.00911843 0.466511 0.730224 -0.499056 
-0.869382 0.204891 -0.141782 0.426723 
0.0113518 -0.354562 -0.87744 0.322887 
0.243838 0.202744 -0.941695 0.112462 
0.193185 -0.874848 0.270869 0.352065 
0.46848 -0.19886 0.411147 0.756267 
0.281956 0.718288 0.242027 0.588206 
-0.723617 -0.689616 0.0066067 -0.0276469 
0.335846 0.891866 -0.194557 -0.232229 
0.00649343 0.798728 -0.601654 -0.00161247 
-0.62877 0.12247 -0.763694 0.0801328 
0.469231 -0.219349 0.379574 0.766572 
-0.0984569 0.529903 -0.0408091 0.841334 
0.952546 -0.22156 -0.161201 0.132596 
0.0412315 -0.539378 -0.763577 -0.352593 
-0.525602 -0.813052 0.224202 0.11145 
0.745026 -0.507587 0.354409 -0.248368 
0.237268 -0.607199 0.0878087 -0.753195 
-0.114023 -0.576723 -0.0957668 -0.803254 
-0.336224 0.935449 0.0895829 0.0621653 
-0.294284 -0.419021 0.597814 -0.616795 
-0.564801 0.312157 -0.267208 -0.715652 
0.739238 0.127383 0.636222 -0.18034 
-0.935139 -0.178154 0.00428525 -0.306198 
-0.380546 -0.588935 -0.688362 0.185736 
0.288454 -0.298322 -0.833874 0.363941 
0.512062 -0.566755 -0.595745 -0.248332 
0.78935 0.427098 -0.435655 0.0686954 
0.735764 0.374473 -0.359862 0.43465 
-0.127129 0.173861 -0.818122 0.533186 
-0.424257 0.886208 0.145892 -0.11557 
-0.0956278 0.186111 -0.970618 0.118823 
-0.651027 0.671253 0.271903 0.227273 
0.343197 -0.418797 -0.716555 -0.439743 
-0.454949 -0.0388266 0.887781 0.0579551 
0.730927 -0.437285 -0.273523 0.446892 
0.647647 -0.183182 0.274995 0.686568 
-0.385272 0.617397 0.578703 -0.368089 
-0.288967 0.924393 0.192845 0.157502 
-0.0629385 0.974409 -0.148952 -0.156139 
-0.307915 -0.475455 -0.326755 0.756546 
0.440021 0.619583 0.491676 0.425151 
0.681971 -0.236961 0.522644 -0.45344 
0.245689 -0.869284 0.174923 0.391644 
0.836061 -0.384777 -0.389064 -0.0397267 
0.730405 -0.314461 -0.184921 -0.577432 
-0.410918 0.906434 -0.097575 -0.00165502 
-0.0299777 -0.940263 -0.15506 -0.301601 
-0.435695 -0.789907 -0.429829 0.0382602 
-0.211221 -0.0591802 -0.75359 -0.619666 