# vtk DataFile Version 2.0
Generated by NetDEM
ASCII 
DATASET POLYDATA
POINTS 200 double
-0.416975 -0.405351 -0.462857 
-0.403333 -0.203333 -0.450015 
-0.412994 -0.00767823 -0.464671 
-0.40295 0.19705 -0.450015 
-0.402763 0.397237 -0.450015 
-0.258032 -0.433338 -0.459709 
-0.203538 -0.203538 -0.450015 
-0.203218 -0.00321788 -0.450014 
-0.175158 0.191532 -0.461628 
-0.244705 0.369423 -0.464271 
-0.0271021 -0.411286 -0.453501 
-0.00366947 -0.203669 -0.450015 
-0.00360232 -0.00360232 -0.450015 
0.0365174 0.153918 -0.450517 
-0.037226 0.393589 -0.465016 
0.188885 -0.398771 -0.46452 
0.174485 -0.21234 -0.464872 
0.172706 -0.00948552 -0.46262 
0.156937 0.215643 -0.463621 
0.196913 0.396913 -0.450015 
0.396713 -0.403287 -0.450015 
0.39661 -0.20339 -0.450017 
0.396488 -0.00351175 -0.450015 
0.396508 0.196508 -0.450017 
0.374547 0.442445 -0.462323 
-0.403831 -0.399481 -0.38842 
-0.403333 -0.203333 -0.350023 
-0.417584 -0.00990946 -0.391331 
-0.40295 0.19705 -0.350023 
-0.402763 0.397237 -0.350023 
-0.280884 -0.399901 -0.376622 
-0.203538 -0.203538 -0.350023 
-0.203218 -0.00321788 -0.350023 
-0.25331 0.177454 -0.410752 
-0.147006 0.392453 -0.443258 
-0.0129125 -0.396832 -0.366907 
-0.00366947 -0.203669 -0.350023 
-0.00360232 -0.00360232 -0.350023 
0.00220746 0.194956 -0.390472 
-0.00080321 0.37811 -0.379022 
0.187208 -0.397795 -0.391976 
0.196027 -0.208173 -0.391543 
0.18523 -0.0136939 -0.38407 
0.180053 0.173107 -0.382615 
0.196913 0.396913 -0.350025 
0.396713 -0.403287 -0.350023 
0.39661 -0.20339 -0.350029 
0.396488 -0.00351175 -0.350023 
0.396508 0.196508 -0.35003 
0.38324 0.39491 -0.382153 
-0.402956 -0.403122 -0.315753 
-0.403333 -0.203333 -0.24999 
-0.403443 -0.00347214 -0.311126 
-0.40295 0.19705 -0.249994 
-0.402763 0.397237 -0.250014 
-0.193325 -0.403262 -0.347007 
-0.203538 -0.203538 -0.250009 
-0.203218 -0.00321788 -0.249987 
-0.211336 0.198578 -0.328869 
-0.196277 0.416133 -0.360492 
0.00237607 -0.404709 -0.275898 
-0.00366947 -0.203669 -0.249986 
-0.00360232 -0.00360232 -0.249987 
-0.0168613 0.203345 -0.308018 
0.0332421 0.381469 -0.300192 
0.176391 -0.395946 -0.317187 
0.186597 -0.195216 -0.304097 
0.18687 0.000851991 -0.308555 
0.221876 0.158843 -0.306555 
0.196913 0.396913 -0.250032 
0.396713 -0.403287 -0.249998 
0.39661 -0.20339 -0.250037 
0.396488 -0.00351175 -0.25 
0.396508 0.196508 -0.250037 
0.403038 0.373062 -0.304606 
-0.412106 -0.403568 -0.240517 
-0.403333 -0.203333 -0.149912 
-0.406686 0.00173974 -0.234639 
-0.40295 0.19705 -0.149918 
-0.402763 0.397237 -0.149938 
-0.178349 -0.404901 -0.266855 
-0.203538 -0.203538 -0.149912 
-0.203218 -0.00321788 -0.149907 
-0.182762 0.192624 -0.243149 
-0.206802 0.396396 -0.270425 
0.00460284 -0.400708 -0.186868 
-0.00366947 -0.203669 -0.149901 
-0.00360232 -0.00360232 -0.149905 
-0.00465888 0.192599 -0.228702 
0.00612 0.406162 -0.222502 
0.20023 -0.399614 -0.229892 
0.189165 -0.201377 -0.215126 
0.190714 -0.00340981 -0.235706 
0.206177 0.204247 -0.227634 
0.196913 0.396913 -0.149974 
0.396713 -0.403287 -0.149926 
0.39661 -0.20339 -0.14999 
0.396488 -0.00351175 -0.149927 
0.396508 0.196508 -0.150004 
0.395405 0.402626 -0.207338 
-0.40554 -0.404834 -0.153359 
-0.403333 -0.203333 -0.049812 
-0.401141 -0.00357968 -0.146854 
-0.40295 0.19705 -0.0498217 
-0.402763 0.397237 -0.0498627 
-0.210611 -0.403363 -0.178047 
-0.203538 -0.203538 -0.049838 
-0.203218 -0.00321788 -0.0498154 
-0.209182 0.195367 -0.151116 
-0.202996 0.395879 -0.176524 
-0.0026915 -0.398622 -0.101178 
-0.00366947 -0.203669 -0.0497944 
-0.00360232 -0.00360232 -0.0498017 
-0.00443661 0.202233 -0.141878 
-0.00990412 0.403222 -0.127786 
0.193563 -0.407133 -0.157802 
0.195959 -0.210323 -0.124189 
0.189769 -0.00316227 -0.156027 
0.195915 0.204168 -0.135353 
0.196913 0.396913 -0.049911 
0.396713 -0.403287 -0.0498435 
0.39661 -0.20339 -0.0499426 
0.396488 -0.00351175 -0.0498444 
0.396508 0.196508 -0.0499398 
0.398163 0.394608 -0.102822 
-0.407328 -0.404128 -0.0794924 
-0.403333 -0.203333 0.0502547 
-0.407582 -0.00338926 -0.071802 
-0.40295 0.19705 0.0502432 
-0.402763 0.397237 0.0502154 
-0.202007 -0.40253 -0.0662481 
-0.203538 -0.203538 0.0502403 
-0.203218 -0.00321788 0.0502793 
-0.202476 0.197002 -0.0593975 
-0.203662 0.394336 -0.0809621 
-0.0119151 -0.404804 -0.016983 
-0.00366947 -0.203669 0.0502777 
-0.00360232 -0.00360232 0.0502676 
-0.000890292 0.196054 -0.0425234 
-0.00748184 0.392932 -0.0374401 
0.200644 -0.400623 -0.0776719 
0.195525 -0.204309 -0.0315989 
0.193708 -0.00207257 -0.0831036 
0.192775 0.195372 -0.0407208 
0.196913 0.396913 0.0501476 
0.396713 -0.403287 0.0502328 
0.39661 -0.20339 0.0501228 
0.396488 -0.00351175 0.0502322 
0.396508 0.196508 0.0501111 
0.397433 0.396917 0.000356007 
-0.403633 -0.403633 0.0948877 
-0.403333 -0.203333 0.150305 
-0.403998 -0.00399844 0.0945224 
-0.40295 0.19705 0.150293 
-0.402763 0.397237 0.150245 
-0.203099 -0.403099 0.0954219 
-0.203538 -0.203538 0.15029 
-0.203218 -0.00321788 0.150315 
-0.203937 0.196063 0.0945835 
-0.203347 0.396653 0.0951739 
-0.00292062 -0.402921 0.0956002 
-0.00366947 -0.203669 0.150333 
-0.00360232 -0.00360232 0.15032 
-0.00217008 0.19783 0.0963508 
-0.00266816 0.397332 0.0958527 
0.197698 -0.402302 0.0962187 
0.196222 -0.203778 0.0947426 
0.197391 -0.00260897 0.0959119 
0.197198 0.197198 0.0957186 
0.196913 0.396913 0.150184 
0.396713 -0.403287 0.150281 
0.39661 -0.20339 0.150157 
0.396488 -0.00351175 0.150281 
0.396508 0.196508 0.150143 
0.39665 0.396443 0.109077 
-0.403633 -0.403633 0.334152 
-0.403333 -0.203333 0.334453 
-0.403998 -0.00399844 0.333787 
-0.40295 0.19705 0.334835 
-0.402763 0.397237 0.335022 
-0.203099 -0.403099 0.334686 
-0.203538 -0.203538 0.334247 
-0.203218 -0.00321788 0.334568 
-0.203937 0.196063 0.333848 
-0.203347 0.396653 0.334438 
-0.00292062 -0.402921 0.334865 
-0.00366947 -0.203669 0.334116 
-0.00360232 -0.00360232 0.334183 
-0.00217008 0.19783 0.335615 
-0.00266816 0.397332 0.335117 
0.197698 -0.402302 0.335483 
0.196222 -0.203778 0.334007 
0.197391 -0.00260897 0.335176 
0.197198 0.197198 0.334983 
0.196913 0.396913 0.334698 
0.396713 -0.403287 0.334498 
0.39661 -0.20339 0.334395 
0.396488 -0.00351175 0.334274 
0.396508 0.196508 0.334293 
0.396534 0.396534 0.334319 
VERTICES 200 400
1 0
1 1
1 2
1 3
1 4
1 5
1 6
1 7
1 8
1 9
1 10
1 11
1 12
1 13
1 14
1 15
1 16
1 17
1 18
1 19
1 20
1 21
1 22
1 23
1 24
1 25
1 26
1 27
1 28
1 29
1 30
1 31
1 32
1 33
1 34
1 35
1 36
1 37
1 38
1 39
1 40
1 41
1 42
1 43
1 44
1 45
1 46
1 47
1 48
1 49
1 50
1 51
1 52
1 53
1 54
1 55
1 56
1 57
1 58
1 59
1 60
1 61
1 62
1 63
1 64
1 65
1 66
1 67
1 68
1 69
1 70
1 71
1 72
1 73
1 74
1 75
1 76
1 77
1 78
1 79
1 80
1 81
1 82
1 83
1 84
1 85
1 86
1 87
1 88
1 89
1 90
1 91
1 92
1 93
1 94
1 95
1 96
1 97
1 98
1 99
1 100
1 101
1 102
1 103
1 104
1 105
1 106
1 107
1 108
1 109
1 110
1 111
1 112
1 113
1 114
1 115
1 116
1 117
1 118
1 119
1 120
1 121
1 122
1 123
1 124
1 125
1 126
1 127
1 128
1 129
1 130
1 131
1 132
1 133
1 134
1 135
1 136
1 137
1 138
1 139
1 140
1 141
1 142
1 143
1 144
1 145
1 146
1 147
1 148
1 149
1 150
1 151
1 152
1 153
1 154
1 155
1 156
1 157
1 158
1 159
1 160
1 161
1 162
1 163
1 164
1 165
1 166
1 167
1 168
1 169
1 170
1 171
1 172
1 173
1 174
1 175
1 176
1 177
1 178
1 179
1 180
1 181
1 182
1 183
1 184
1 185
1 186
1 187
1 188
1 189
1 190
1 191
1 192
1 193
1 194
1 195
1 196
1 197
1 198
1 199
POINT_DATA 200
SCALARS id int 1
LOOKUP_TABLE default
0
1
2
3
4
5
6
7
8
9
10
11
12
13
14
15
16
17
18
19
20
21
22
23
24
25
26
27
28
29
30
31
32
33
34
35
36
37
38
39
40
41
42
43
44
45
46
47
48
49
50
51
52
53
54
55
56
57
58
59
60
61
62
63
64
65
66
67
68
69
70
71
72
73
74
75
76
77
78
79
80
81
82
83
84
85
86
87
88
89
90
91
92
93
94
95
96
97
98
99
100
101
102
103
104
105
106
107
108
109
110
111
112
113
114
115
116
117
118
119
120
121
122
123
124
125
126
127
128
129
130
131
132
133
134
135
136
137
138
139
140
141
142
143
144
145
146
147
148
149
150
151
152
153
154
155
156
157
158
159
160
161
162
163
164
165
166
167
168
169
170
171
172
173
174
175
176
177
178
179
180
181
182
183
184
185
186
187
188
189
190
191
192
193
194
195
196
197
198
199
SCALARS type int 1
LOOKUP_TABLE default
0
0
0
0
0
0
0
0
0
0
0
0
0
0
0
0
0
0
0
0
0
0
0
0
0
0
0
0
0
0
0
0
0
0
0
0
0
0
0
0
0
0
0
0
0
0
0
0
0
0
0
0
0
0
0
0
0
0
0
0
0
0
0
0
0
0
0
0
0
0
0
0
0
0
0
0
0
0
0
0
0
0
0
0
0
0
0
0
0
0
0
0
0
0
0
0
0
0
0
0
0
0
0
0
0
0
0
0
0
0
0
0
0
0
0
0
0
0
0
0
0
0
0
0
0
0
0
0
0
0
0
0
0
0
0
0
0
0
0
0
0
0
0
0
0
0
0
0
0
0
0
0
0
0
0
0
0
0
0
0
0
0
0
0
0
0
0
0
0
0
0
0
0
0
0
0
0
0
0
0
0
0
0
0
0
0
0
0
0
0
0
0
0
0
0
0
0
0
0
0
SCALARS damp_viscous double 1
LOOKUP_TABLE default
0
0
0
0
0
0
0
0
0
0
0
0
0
0
0
0
0
0
0
0
0
0
0
0
0
0
0
0
0
0
0
0
0
0
0
0
0
0
0
0
0
0
0
0
0
0
0
0
0
0
0
0
0
0
0
0
0
0
0
0
0
0
0
0
0
0
0
0
0
0
0
0
0
0
0
0
0
0
0
0
0
0
0
0
0
0
0
0
0
0
0
0
0
0
0
0
0
0
0
0
0
0
0
0
0
0
0
0
0
0
0
0
0
0
0
0
0
0
0
0
0
0
0
0
0
0
0
0
0
0
0
0
0
0
0
0
0
0
0
0
0
0
0
0
0
0
0
0
0
0
0
0
0
0
0
0
0
0
0
0
0
0
0
0
0
0
0
0
0
0
0
0
0
0
0
0
0
0
0
0
0
0
0
0
0
0
0
0
0
0
0
0
0
0
0
0
0
0
0
0
SCALARS damp_numerical double 1
LOOKUP_TABLE default
0.5
0.5
0.5
0.5
0.5
0.5
0.5
0.5
0.5
0.5
0.5
0.5
0.5
0.5
0.5
0.5
0.5
0.5
0.5
0.5
0.5
0.5
0.5
0.5
0.5
0.5
0.5
0.5
0.5
0.5
0.5
0.5
0.5
0.5
0.5
0.5
0.5
0.5
0.5
0.5
0.5
0.5
0.5
0.5
0.5
0.5
0.5
0.5
0.5
0.5
0.5
0.5
0.5
0.5
0.5
0.5
0.5
0.5
0.5
0.5
0.5
0.5
0.5
0.5
0.5
0.5
0.5
0.5
0.5
0.5
0.5
0.5
0.5
0.5
0.5
0.5
0.5
0.5
0.5
0.5
0.5
0.5
0.5
0.5
0.5
0.5
0.5
0.5
0.5
0.5
0.5
0.5
0.5
0.5
0.5
0.5
0.5
0.5
0.5
0.5
0.5
0.5
0.5
0.5
0.5
0.5
0.5
0.5
0.5
0.5
0.5
0.5
0.5
0.5
0.5
0.5
0.5
0.5
0.5
0.5
0.5
0.5
0.5
0.5
0.5
0.5
0.5
0.5
0.5
0.5
0.5
0.5
0.5
0.5
0.5
0.5
0.5
0.5
0.5
0.5
0.5
0.5
0.5
0.5
0.5
0.5
0.5
0.5
0.5
0.5
0.5
0.5
0.5
0.5
0.5
0.5
0.5
0.5
0.5
0.5
0.5
0.5
0.5
0.5
0.5
0.5
0.5
0.5
0.5
0.5
0.5
0.5
0.5
0.5
0.5
0.5
0.5
0.5
0.5
0.5
0.5
0.5
0.5
0.5
0.5
0.5
0.5
0.5
0.5
0.5
0.5
0.5
0.5
0.5
0.5
0.5
0.5
0.5
0.5
0.5
SCALARS quat double 4
LOOKUP_TABLE default
0.980232 0.0846178 -0.019826 0.177741 
0.422936 0.19358 0.881935 0.076436 
0.99286 0.0652069 -0.0998885 0.000435383 
0.933896 0.135683 0.0158348 0.330419 
0.218235 0.323535 0.831742 0.394847 
0.80037 -0.161628 -0.128242 0.562883 
0.259029 0.245797 0.696789 0.622072 
0.947128 0.0660144 0.273627 0.154011 
-0.103399 0.869789 0.449646 0.174909 
0.28433 0.151067 0.0671301 0.944367 
0.90913 0.131296 0.146521 0.367117 
0.895604 0.01201 0.325206 0.3033 
0.115508 0.577388 0.641376 0.491851 
0.380222 0.774704 0.491591 0.116634 
0.799092 0.138494 -0.0310998 0.584212 
0.994401 0.0563402 -0.0893635 -0.00267039 
0.659703 0.137494 0.0040684 0.738831 
0.975416 0.0831747 -0.0147622 0.20354 
0.972327 0.0298687 -0.0876086 0.214508 
0.872998 0.106465 0.203002 0.430499 
1 0.000646178 0.000193913 0.000461524 
0.464545 0.197074 0.639242 0.580284 
0.80546 0.16019 0.208233 0.531236 
0.973067 0.0554567 0.156413 0.16 
0.997904 0.0579637 -0.028648 -0.00253711 
0.982303 0.108196 -0.0659196 0.137943 
0.422936 0.19358 0.881935 0.076436 
0.982021 0.0170483 -0.176141 0.0657149 
0.933896 0.135683 0.0158348 0.330419 
0.218235 0.323535 0.831742 0.394847 
0.716647 -0.0404648 0.672698 0.179602 
0.259029 0.245797 0.696789 0.622072 
0.947128 0.0660144 0.273627 0.154011 
0.202577 0.50206 0.394262 0.742601 
0.0988704 0.848389 0.339929 -0.393586 
0.883436 0.232008 0.294855 0.280665 
0.895604 0.01201 0.325206 0.3033 
0.115508 0.577388 0.641376 0.491851 
0.932601 -0.289632 -0.192163 -0.0971727 
0.548994 0.741357 0.284139 0.261267 
0.959211 0.0730518 -0.195118 0.191066 
0.736964 0.290736 0.0480967 0.608312 
0.977659 0.0814827 0.0545072 0.185939 
0.589003 0.613331 0.508436 0.13562 
0.872998 0.106465 0.203002 0.430499 
1 0.000646178 0.000193913 0.000461524 
0.464545 0.197074 0.639242 0.580284 
0.80546 0.16019 0.208233 0.531236 
0.973067 0.0554567 0.156413 0.16 
0.13417 0.873527 0.467839 0.00868212 
0.96421 0.139526 -0.175082 0.142052 
0.422936 0.19358 0.881935 0.076436 
0.97815 0.0428914 -0.185418 0.0836876 
0.933896 0.135683 0.0158348 0.330419 
0.218235 0.323535 0.831742 0.394847 
0.100457 0.365214 0.896301 0.230591 
0.259029 0.245797 0.696789 0.622072 
0.947128 0.0660144 0.273627 0.154011 
-0.246956 0.844662 0.236951 -0.411598 
0.201125 -0.537303 -0.286617 0.767271 
0.838008 0.335873 0.386539 0.188467 
0.895604 0.01201 0.325206 0.3033 
0.115508 0.577388 0.641376 0.491851 
0.16917 0.815356 0.549351 -0.0692057 
0.860521 0.220605 0.00455527 0.459148 
0.950902 0.114271 -0.277625 0.0751732 
0.619541 0.392273 -0.0650771 0.676798 
0.991336 0.0752182 0.0360203 0.101479 
0.942144 0.112641 0.260025 0.179065 
0.872998 0.106465 0.203002 0.430499 
1 0.000646178 0.000193913 0.000461524 
0.464545 0.197074 0.639242 0.580284 
0.80546 0.16019 0.208233 0.531236 
0.973067 0.0554567 0.156413 0.16 
0.964888 -0.0227909 0.245819 -0.0896923 
0.951713 0.166996 -0.243432 0.0842363 
0.422936 0.19358 0.881935 0.076436 
0.947062 0.0770532 -0.310237 0.0298232 
0.933896 0.135683 0.0158348 0.330419 
0.218235 0.323535 0.831742 0.394847 
0.926493 -0.303514 -0.0287685 0.220595 
0.259029 0.245797 0.696789 0.622072 
0.947128 0.0660144 0.273627 0.154011 
0.180329 0.678448 0.255327 0.664829 
-0.157902 0.855648 0.441882 0.218342 
0.894925 0.277814 0.118124 0.328596 
0.895604 0.01201 0.325206 0.3033 
0.115508 0.577388 0.641376 0.491851 
0.983964 -0.0594414 0.129374 -0.107444 
0.786114 0.128264 -0.144855 0.587018 
0.978058 0.205333 -0.0331469 -0.0119544 
0.666658 0.457357 -0.067143 0.584709 
0.967692 0.110094 -0.0213455 0.225824 
0.951993 0.00677203 0.175368 0.250816 
0.872998 0.106465 0.203002 0.430499 
1 0.000646178 0.000193913 0.000461524 
0.464545 0.197074 0.639242 0.580284 
0.80546 0.16019 0.208233 0.531236 
0.973067 0.0554567 0.156413 0.16 
0.714892 0.644995 0.269897 -0.00819292 
0.98348 0.135417 -0.0669404 0.0997437 
0.422936 0.19358 0.881935 0.076436 
0.983426 0.117012 -0.138469 -0.00281913 
0.933896 0.135683 0.0158348 0.330419 
0.218235 0.323535 0.831742 0.394847 
0.790118 0.0355369 0.552795 0.262429 
0.259029 0.245797 0.696789 0.622072 
0.947128 0.0660144 0.273627 0.154011 
0.118113 0.803934 0.475103 0.337663 
0.363617 0.0216813 0.0975566 0.926172 
0.921324 0.214901 0.113045 0.303645 
0.895604 0.01201 0.325206 0.3033 
0.115508 0.577388 0.641376 0.491851 
0.637768 0.704253 0.305071 0.0649017 
0.706627 0.526122 -0.0380133 0.471624 
0.971407 0.193005 -0.136938 0.01911 
0.659941 0.44367 -0.0449221 0.604662 
0.964986 0.0743733 0.0336256 0.249281 
0.782741 0.481991 0.0886605 0.383587 
0.872998 0.106465 0.203002 0.430499 
1 0.000646178 0.000193913 0.000461524 
0.464545 0.197074 0.639242 0.580284 
0.80546 0.16019 0.208233 0.531236 
0.973067 0.0554567 0.156413 0.16 
0.909928 0.377153 0.171938 0.0149626 
0.9532 0.175248 -0.22146 0.107947 
0.422936 0.19358 0.881935 0.076436 
0.938059 0.159345 -0.306223 0.029692 
0.933896 0.135683 0.0158348 0.330419 
0.218235 0.323535 0.831742 0.394847 
0.795827 0.00546202 0.535804 0.282036 
0.259029 0.245797 0.696789 0.622072 
0.947128 0.0660144 0.273627 0.154011 
-0.0906107 0.853037 0.398474 0.324554 
0.116519 0.591091 0.461537 0.651167 
0.881169 0.35091 0.039496 0.314393 
0.895604 0.01201 0.325206 0.3033 
0.115508 0.577388 0.641376 0.491851 
0.753229 0.443046 0.481152 -0.0696283 
0.833754 0.340919 -0.0459338 0.431878 
0.958357 0.142972 -0.243001 0.0453947 
0.694984 0.253723 -0.141005 0.657829 
0.96547 0.0957525 -0.0383742 0.239222 
0.875086 0.359182 0.0982199 0.309137 
0.872998 0.106465 0.203002 0.430499 
1 0.000646178 0.000193913 0.000461524 
0.464545 0.197074 0.639242 0.580284 
0.80546 0.16019 0.208233 0.531236 
0.973067 0.0554567 0.156413 0.16 
0.806337 0.527875 0.266327 -0.0154287 
0.987695 0.113077 0.0865597 0.064658 
0.422936 0.19358 0.881935 0.076436 
0.999938 0.00834925 0.00519597 0.00514693 
0.933896 0.135683 0.0158348 0.330419 
0.218235 0.323535 0.831742 0.394847 
0.822268 0.00687642 0.488428 0.292003 
0.259029 0.245797 0.696789 0.622072 
0.947128 0.0660144 0.273627 0.154011 
0.114949 0.809678 0.432343 0.379853 
0.241786 0.448885 0.409847 0.756351 
0.907485 0.19221 0.316201 0.198854 
0.895604 0.01201 0.325206 0.3033 
0.115508 0.577388 0.641376 0.491851 
0.835101 0.483927 0.255872 0.054317 
0.824488 0.388943 0.180706 0.369174 
0.997984 0.0571643 0.0186911 0.0202818 
0.733928 0.293165 0.134605 0.597734 
0.94956 0.0531351 0.230499 0.205872 
0.894099 0.242412 0.307197 0.217838 
0.872998 0.106465 0.203002 0.430499 
1 0.000646178 0.000193913 0.000461524 
0.464545 0.197074 0.639242 0.580284 
0.80546 0.16019 0.208233 0.531236 
0.973067 0.0554567 0.156413 0.16 
0.857016 0.473043 0.203843 0.0142243 
0.987695 0.113077 0.0865597 0.064658 
0.422936 0.19358 0.881935 0.076436 
0.999938 0.00834925 0.00519597 0.00514693 
0.933896 0.135683 0.0158348 0.330419 
0.218235 0.323535 0.831742 0.394847 
0.822268 0.00687642 0.488428 0.292003 
0.259029 0.245797 0.696789 0.622072 
0.947128 0.0660144 0.273627 0.154011 
0.114949 0.809678 0.432343 0.379853 
0.241786 0.448885 0.409847 0.756351 
0.907485 0.19221 0.316201 0.198854 
0.895604 0.01201 0.325206 0.3033 
0.115508 0.577388 0.641376 0.491851 
0.835101 0.483927 0.255872 0.054317 
0.824488 0.388943 0.180706 0.369174 
0.997984 0.0571643 0.0186911 0.0202818 
0.733928 0.293165 0.134605 0.597734 
0.94956 0.0531351 0.230499 0.205872 
0.894099 0.242412 0.307197 0.217838 
0.872998 0.106465 0.203002 0.430499 
1 0.000646178 0.000193913 0.000461524 
0.464545 0.197074 0.639242 0.580284 
0.80546 0.16019 0.208233 0.531236 
0.973067 0.0554567 0.156413 0.16 
0.85666 0.475253 0.200024 0.0160836 
VECTORS vel double
0.00154159 0.00115501 0.0124233 
0 0 -0.00100799 
0.0119849 0.0242976 0.0175603 
0 0 -0.000937457 
0 0 -0.000502416 
-0.0106492 0.0279179 0.0114443 
0 0 -0.000735074 
0 0 -0.00208163 
0.0102148 -0.0208903 -0.00628607 
-0.0552513 -0.00699703 -0.027228 
-0.0686927 0.00199425 -0.0476632 
0 0 -0.000998874 
0 0 -0.0010382 
0.165786 -0.109679 0.01359 
0.0270531 -0.00145752 -0.00353137 
0.0110817 0.0170236 0.0330321 
0.00059587 0.00057568 0.00139047 
-0.00495858 0.0418676 0.00779063 
0.0179434 -0.0015173 -0.0177911 
0 0 -0.00159048 
0 0 -0.000739154 
0 0 -0.00312059 
0 0 -0.000632063 
0 0 -0.00329966 
-0.177915 0.228984 -0.107791 
0.029077 0.00776538 0.0330407 
0 0 -0.000963861 
0.0131123 0.0218101 0.00762582 
0 0 -0.000909393 
0 0 -0.000374322 
-0.169245 -0.00293676 -0.0594081 
0 0 -0.00061095 
0 0 -0.00246752 
-0.262878 -0.0531008 -0.234432 
-0.145168 0.0832578 -0.0341605 
-0.150292 0.0514265 -0.0234853 
0 0 -0.000940946 
0 0 -0.00101574 
0.127618 0.122347 -0.336807 
0.163871 -0.0595129 -0.0724151 
0.0225713 0.0584204 0.0538112 
0.0173771 -0.00255996 0.00714858 
0.00635192 0.0952356 0.0153352 
0.0947448 -0.197728 -0.134394 
0 0 -0.00574606 
0 0 -0.000663754 
0 0 -0.00666829 
0 0 -0.000486311 
0 0 -0.00671 
-0.0822084 -0.0520552 -0.0415931 
0.0369708 -0.0258501 -0.00140014 
0 0 -0.0200663 
-0.00600964 -0.0324892 0.0337094 
0 0 -0.0200404 
0 0 -0.0207965 
-0.0127593 -0.0332172 -0.897796 
0 0 -0.0217122 
0 0 -0.0200651 
-0.0273147 -0.0121577 -0.366949 
-0.166704 0.0423538 -0.0926523 
-0.0206599 0.0469709 -0.0256621 
0 0 -0.0205765 
0 0 -0.0202486 
-0.119493 0.107312 -0.306718 
0.272558 -0.120489 -0.114233 
-0.0466312 0.0510453 0.0333473 
-0.0720595 0.0332348 0.00414491 
0.0072255 0.0461602 0.00679773 
0.143312 -0.282086 -0.195614 
0 0 -0.01022 
0 0 -0.0204683 
0 0 -0.00720905 
0 0 -0.0208783 
0 0 -0.00729982 
0.0535272 -0.144358 -0.301333 
0.00677677 -0.0221392 0.0173194 
0 0 -0.0144695 
0.0454025 -0.0145554 0.0535403 
0 0 -0.0145396 
0 0 -0.0149053 
0.166723 0.0196917 -1.12678 
0 0 -0.0147181 
0 0 -0.0144061 
0.228418 0.00300833 -0.443525 
-0.00433025 0.0667145 -0.0214354 
0.118484 0.0191792 -0.0440827 
0 0 -0.0147793 
0 0 -0.0145531 
-0.0532544 -0.172785 -0.459336 
0.0521026 0.0665119 -0.202023 
-0.0301748 -0.0496868 0.0742272 
-0.0791462 0.00366534 0.0091698 
-0.0145918 -0.0292457 -0.0146998 
0.0156848 -0.0501363 -0.392863 
0 0 -0.0177532 
0 0 -0.0151836 
0 0 -0.0189759 
0 0 -0.0155961 
0 0 -0.0197214 
0.00059172 0.0340038 -0.952693 
0.0354936 0.0462181 0.00600531 
0 0 -0.00836493 
0.106745 0.0982223 0.0435166 
0 0 -0.00848967 
0 0 -0.00987563 
-0.0828962 -0.00954307 -1.38017 
0 0 -0.0101223 
0 0 -0.00881441 
-0.0974023 0.0330214 -0.504815 
-0.028949 0.0169424 -0.225116 
0.113951 0.0923268 -0.0311352 
0 0 -0.0084374 
0 0 -0.00833087 
-0.182691 0.148704 -0.375429 
-0.000567504 0.0920962 -0.183624 
0.0901665 -0.0224053 0.0970613 
0.0651758 -0.00177845 0.007356 
0.0984652 0.055054 0.111234 
0.0636196 0.113806 -0.3667 
0 0 -0.0132948 
0 0 -0.00996332 
0 0 -0.0154927 
0 0 -0.0103867 
0 0 -0.014943 
0.00676942 -0.00897012 -1.08881 
-0.148278 -0.0352403 0.0374837 
0 0 -0.00466416 
-0.164657 -0.0436545 0.068965 
0 0 -0.00483013 
0 0 -0.00524446 
0.0169236 0.0113783 -1.38836 
0 0 -0.00572927 
0 0 -0.00360233 
0.0259134 0.0166329 -0.743329 
0.00814316 -0.0778692 -0.198219 
-0.19405 -0.0637267 -0.104169 
0 0 -0.00456493 
0 0 -0.00455167 
0.102221 0.00964445 -0.485284 
-0.0851753 -0.0768396 -0.265541 
-0.0587792 0.0020701 0.0709354 
-0.0352019 -0.0416901 0.00557769 
-0.172399 -0.027723 -0.122472 
-0.0734635 -0.0304009 -0.616483 
0 0 -0.00958704 
0 0 -0.00561335 
0 0 -0.011211 
0 0 -0.00604323 
0 0 -0.0115784 
-0.0376631 0.0177521 -1.11253 
0 0 -2.6379 
0 0 -0.00193452 
0 0 -2.6379 
0 0 -0.00212759 
0 0 -0.00357432 
0 0 -2.6379 
0 0 -0.00309307 
0 0 -0.00166369 
0 0 -2.6379 
0 0 -2.6379 
0 0 -2.6379 
0 0 -0.00170566 
0 0 -0.00176967 
0 0 -2.6379 
0 0 -2.6379 
0 0 -2.6379 
0 0 -2.6379 
0 0 -2.6379 
0 0 -2.6379 
0 0 -0.0074133 
0 0 -0.00300542 
0 0 -0.00913141 
0 0 -0.00345408 
0 0 -0.00961557 
0.0146404 -0.0111752 -1.07585 
0 0 -2.1474 
0 0 -2.1474 
0 0 -2.1474 
0 0 -2.1474 
0 0 -2.1474 
0 0 -2.1474 
0 0 -2.1474 
0 0 -2.1474 
0 0 -2.1474 
0 0 -2.1474 
0 0 -2.1474 
0 0 -2.1474 
0 0 -2.1474 
0 0 -2.1474 
0 0 -2.1474 
0 0 -2.1474 
0 0 -2.1474 
0 0 -2.1474 
0 0 -2.1474 
0 0 -2.1474 
0 0 -2.1474 
0 0 -2.1474 
0 0 -2.1474 
0 0 -2.1474 
0 0 -2.1474 
VECTORS spin double
-0.0900615 -0.094746 0.145624 
0 0 0 
-0.663575 0.293497 0.0373456 
0 0 0 
0 0 0 
-0.657236 -0.448728 0.511151 
0 0 0 
0 0 0 
0.461351 0.291584 -0.255468 
0.189696 -1.54625 0.00165713 
-0.133411 -1.48412 0.0613188 
0 0 0 
0 0 0 
2.3465 3.35925 -0.824804 
0.0552485 0.77338 0.0683929 
-0.438051 0.297155 0.015808 
-0.0350374 -0.0854497 -0.0180104 
-1.67847 -0.528144 0.88765 
0.480481 0.520803 0.471139 
0 0 0 
0 0 0 
0 0 0 
0 0 0 
0 0 0 
-5.74879 -4.55928 -1.01213 
-0.162462 0.858817 0.465866 
0 0 0 
0.840675 -0.418456 0.059033 
0 0 0 
0 0 0 
1.1583 -2.72563 0.0123447 
0 0 0 
0 0 0 
1.24673 -5.61643 -0.132169 
-1.60436 -2.42089 0.464611 
-0.745784 -0.659216 -0.00534137 
0 0 0 
0 0 0 
-13.7382 -5.77889 1.16923 
0.846605 2.60521 -1.07632 
-0.649121 -0.170764 0.197503 
0.156068 0.55675 -0.355292 
0.149205 0.428005 1.52871 
3.83803 2.07189 -1.99642 
0 0 0 
0 0 0 
0 0 0 
0 0 0 
0 0 0 
10.1894 6.53218 0.207528 
1.56709 -0.827103 -0.253651 
0 0 0 
0.449921 -0.0507857 -0.00956078 
0 0 0 
0 0 0 
-1.42078 13.1909 0.773025 
0 0 0 
0 0 0 
-2.76171 10.6493 0.0950589 
1.91444 1.24327 -2.01521 
0.487542 2.67198 -0.148025 
0 0 0 
0 0 0 
18.7093 1.59919 2.63962 
-0.346701 -0.566936 -0.795904 
0.312704 -1.69102 1.29816 
-0.95231 -2.80853 -0.173632 
2.31686 0.118906 -0.316953 
-2.83932 -0.228865 -0.162575 
0 0 0 
0 0 0 
0 0 0 
0 0 0 
0 0 0 
-5.54966 -1.85529 0.852748 
-1.83019 0.364691 -1.06364 
0 0 0 
-0.948744 1.40243 -0.477923 
0 0 0 
0 0 0 
0.386389 -8.14917 0.724281 
0 0 0 
0 0 0 
1.91239 -3.71911 -1.11203 
-3.25092 3.45396 -0.906933 
0.0849429 0.272476 -0.0847678 
0 0 0 
0 0 0 
-9.32629 -0.493844 0.406872 
-4.53264 -5.88546 0.558722 
3.17444 2.89376 0.494892 
1.74516 3.1109 0.921963 
-0.00429102 -0.649363 -0.894676 
-2.64965 -3.51981 -1.02306 
0 0 0 
0 0 0 
0 0 0 
0 0 0 
0 0 0 
2.84972 0.807977 -0.13651 
-0.31029 0.210911 0.745487 
0 0 0 
-1.99642 -0.366503 -0.0857019 
0 0 0 
0 0 0 
-0.0713332 0.587919 -0.516148 
0 0 0 
0 0 0 
-3.66135 -3.3394 0.481884 
5.48255 -5.93467 0.272596 
-1.78273 -0.420338 0.081584 
0 0 0 
0 0 0 
0.433511 -2.98564 -2.02206 
1.94045 3.42573 2.00415 
-3.89394 0.525508 -1.24709 
-1.84812 0.190833 -2.00914 
-2.81793 2.85388 0.444972 
-2.12432 3.34091 1.90538 
0 0 0 
0 0 0 
0 0 0 
0 0 0 
0 0 0 
-2.23727 -1.22897 -0.0138589 
2.438 -5.09601 0.876925 
0 0 0 
5.37369 -6.38672 1.59988 
0 0 0 
0 0 0 
-0.268405 1.22516 -0.0421454 
0 0 0 
0 0 0 
5.90989 4.9142 0.968554 
-1.84529 4.17009 0.665706 
5.21657 -6.20235 -0.0107048 
0 0 0 
0 0 0 
2.28806 8.26535 -1.09401 
2.38712 -7.46568 -1.10326 
4.05842 -5.15582 1.01051 
4.44623 -3.55597 0.823217 
5.18426 -10.2927 0.457378 
6.26065 -5.59977 0.114975 
0 0 0 
0 0 0 
0 0 0 
0 0 0 
0 0 0 
1.39439 0.303368 -0.234704 
0 0 0 
0 0 0 
0 0 0 
0 0 0 
0 0 0 
0 0 0 
0 0 0 
0 0 0 
0 0 0 
0 0 0 
0 0 0 
0 0 0 
0 0 0 
0 0 0 
0 0 0 
0 0 0 
0 0 0 
0 0 0 
0 0 0 
0 0 0 
0 0 0 
0 0 0 
0 0 0 
0 0 0 
-0.810276 0.478744 0.159417 
0 0 0 
0 0 0 
0 0 0 
0 0 0 
0 0 0 
0 0 0 
0 0 0 
0 0 0 
0 0 0 
0 0 0 
0 0 0 
0 0 0 
0 0 0 
0 0 0 
0 0 0 
0 0 0 
0 0 0 
0 0 0 
0 0 0 
0 0 0 
0 0 0 
0 0 0 
0 0 0 
0 0 0 
0 0 0 
VECTORS force double
-1.06499 -1.49038 7.22429 
0 0 1.99124 
-0.0939974 1.81716 -1.38437 
0 0 1.91336 
0 0 1.54857 
0.793673 -0.744741 -0.617311 
0 0 1.80629 
0 0 2.57772 
2.15942 -1.34585 -1.81984 
-3.03161 -0.13737 -1.83979 
-4.54363 15.9257 -2.35274 
0 0 2.07587 
0 0 2.05557 
-1.81574 -3.92159 -27.4093 
1.67905 -1.74175 -0.533952 
-1.8381 15.7444 -7.62255 
0.144019 2.66343 -15.2044 
1.85563 -4.47828 12.9118 
5.70092 -5.98969 2.65698 
0 0 -5.51884 
0 0 1.79409 
0 0 -3.35071 
0 0 1.71558 
0 0 -2.82368 
-19.2361 -5.11661 12.7441 
8.10393 -3.80059 -2.88735 
0 0 2.80892 
0.88478 1.44774 -3.16569 
0 0 2.75174 
0 0 2.29358 
-0.235464 -0.134754 -5.05751 
0 0 2.57877 
0 0 3.74771 
0 0 -13.6117 
0 0 -13.6117 
-7.02711 6.81305 3.05803 
0 0 2.98051 
0 0 2.95637 
-9.11141 5.93427 -83.2171 
4.21261 -0.457522 0.32227 
-2.968 -6.30133 -17.4554 
-9.52583 -7.49537 13.5305 
5.29231 -6.95546 11.7057 
2.03985 -14.3992 -22.1911 
0 0 -11.7959 
0 0 2.63847 
0 0 -0.0792139 
0 0 2.46553 
0 0 0.634713 
-5.21933 -1.50732 -2.21752 
12.3116 -8.03005 -7.83174 
0 0 -13.6117 
0.0531779 -0.831066 -2.92567 
0 0 -13.6117 
0 0 -13.6117 
-8.79808 0.104437 -74.2228 
0 0 -13.6117 
0 0 -13.6117 
0 0 -13.6117 
0 0 -13.6117 
-0.0784719 -3.48767 2.51869 
0 0 -13.6117 
0 0 -13.6117 
18.5473 29.6485 -115.789 
5.94103 -1.58092 0.271349 
0.188735 -8.03324 -19.9595 
-12.4035 -1.23576 8.45648 
3.18795 -2.13322 -0.517483 
18.3444 -1.16603 -25.4192 
0 0 9.83182 
0 0 -13.6117 
0 0 2.90475 
0 0 -13.6117 
0 0 2.56234 
0.351269 3.83377 -26.3417 
-3.09536 5.53417 32.8032 
0 0 -13.6117 
-0.256565 0.20734 -4.16649 
0 0 -13.6117 
0 0 -13.6117 
8.79808 -0.104437 46.9993 
0 0 -13.6117 
0 0 -13.6117 
0 0 -13.6117 
0 0 -13.6117 
5.61219 6.7755 3.66818 
0 0 -13.6117 
0 0 -13.6117 
1.78869 -51.8016 7.79093 
0.545468 -0.90869 -10.2844 
13.7612 3.76812 19.3618 
5.12805 6.95695 5.50922 
-9.86261 0.47967 16.8629 
-6.0586 8.23749 30.8639 
0 0 -13.6117 
0 0 -13.6117 
0 0 -13.6117 
0 0 -13.6117 
0 0 -13.6117 
0 0 -13.6117 
-7.05289 -1.87062 12.674 
0 0 -13.6117 
0.109995 0.22877 -6.29942 
0 0 -13.6117 
0 0 -13.6117 
0 0 -13.6117 
0 0 -13.6117 
0 0 -13.6117 
0 0 -13.6117 
0 0 -13.6117 
-2.43976 -2.56057 2.17155 
0 0 -13.6117 
0 0 -13.6117 
-31.7821 -2.03608 43.6738 
0 0 -13.6117 
-4.32074 1.07868 14.4587 
0.622543 -2.87077 2.01931 
-2.40404 -0.921421 1.85608 
0 0 -13.6117 
0 0 -13.6117 
0 0 -13.6117 
0 0 -13.6117 
0 0 -13.6117 
0 0 -13.6117 
0 0 -13.6117 
-4.87739 -0.629898 -2.14864 
0 0 -13.6117 
-0.167943 -0.560595 -9.91111 
0 0 -13.6117 
0 0 -13.6117 
0 0 -13.6117 
0 0 -13.6117 
0 0 -13.6117 
0 0 -13.6117 
0 0 -13.6117 
0 0 -13.6117 
0 0 -13.6117 
0 0 -13.6117 
20.5575 18.2549 79.483 
0 0 -13.6117 
-3.81749 -0.297587 10.9107 
-1.11881 -1.37752 -3.05426 
0 0 -13.6117 
0 0 -13.6117 
0 0 -13.6117 
0 0 -13.6117 
0 0 -13.6117 
0 0 -13.6117 
0 0 -13.6117 
0 0 -13.6117 
0 0 -13.6117 
0 0 -13.6117 
0 0 -13.6117 
0 0 -13.6117 
0 0 -13.6117 
0 0 -13.6117 
0 0 -13.6117 
0 0 -13.6117 
0 0 -13.6117 
0 0 -13.6117 
0 0 -13.6117 
0 0 -13.6117 
0 0 -13.6117 
0 0 -13.6117 
0 0 -13.6117 
0 0 -13.6117 
0 0 -13.6117 
0 0 -13.6117 
0 0 -13.6117 
0 0 -13.6117 
0 0 -13.6117 
0 0 -13.6117 
0 0 -13.6117 
0 0 -13.6117 
0 0 -13.6117 
0 0 -13.6117 
0 0 -13.6117 
0 0 -13.6117 
0 0 -13.6117 
0 0 -13.6117 
0 0 -13.6117 
0 0 -13.6117 
0 0 -13.6117 
0 0 -13.6117 
0 0 -13.6117 
0 0 -13.6117 
0 0 -13.6117 
0 0 -13.6117 
0 0 -13.6117 
0 0 -13.6117 
0 0 -13.6117 
0 0 -13.6117 
0 0 -13.6117 
0 0 -13.6117 
0 0 -13.6117 
0 0 -13.6117 
0 0 -13.6117 
0 0 -13.6117 
0 0 -13.6117 
0 0 -13.6117 
VECTORS moment double
-0.00200189 -0.434057 -0.0167937 
0 0 0 
-0.0106418 0.0678796 0.0116573 
0 0 0 
0 0 0 
0.0192483 0.0187039 -0.0131239 
0 0 0 
0 0 0 
0.0218014 0.0707147 0.00407845 
-0.0110028 -0.0993992 -0.00399344 
-0.618905 0.0486501 0.281633 
0 0 0 
0 0 0 
-0.205113 0.0914603 0.000997295 
0.0554033 0.0068015 -0.00928441 
-0.45831 -0.0339184 0.12093 
-0.439236 0.00252945 0.00668319 
0.0590866 0.0815759 -0.0637949 
-0.0299291 -0.00440155 -0.00769852 
0 0 0 
0 0 0 
0 0 0 
0 0 0 
0 0 0 
-0.0165869 0.25313 0.0251636 
-0.394227 0.372857 0.00584622 
0 0 0 
0.0523669 -0.0666253 0.0161651 
0 0 0 
0 0 0 
-0.0402218 -0.162033 -0.00365965 
0 0 0 
0 0 0 
0 0 0 
0 0 0 
0.302777 -0.19587 0.0292655 
0 0 0 
0 0 0 
-0.757523 0.208557 0.116941 
0.0193893 0.0467589 0.0151093 
0.325991 -0.127749 -0.090659 
0.38395 0.096499 0.116008 
-0.0530798 0.145672 -0.215102 
0.427066 0.57401 -0.508438 
0 0 0 
0 0 0 
0 0 0 
0 0 0 
0 0 0 
-0.0219868 -0.0420019 0.0482374 
-0.174072 0.21028 -0.154059 
0 0 0 
0.0163844 -0.0483492 -0.00378601 
0 0 0 
0 0 0 
0.0707402 0.64731 -0.00915303 
0 0 0 
0 0 0 
0 0 0 
0 0 0 
-0.112724 0.21932 -0.00805278 
0 0 0 
0 0 0 
-0.243363 0.658182 0.460194 
-0.00762708 -0.131982 -0.0490756 
-0.263849 0.011292 -0.166791 
-0.368253 0.199976 -0.0362949 
-0.238305 0.0728532 -0.0800122 
-0.194595 -0.0736169 -0.37109 
0 0 0 
0 0 0 
0 0 0 
0 0 0 
0 0 0 
0.112551 -0.012985 -0.000804837 
0.190872 0.213364 0.165702 
0 0 0 
-0.0523046 0.0604364 0.00404177 
0 0 0 
0 0 0 
0.0205708 -0.446063 -0.00375458 
0 0 0 
0 0 0 
0 0 0 
0 0 0 
0.0211901 -0.000562858 0.00881482 
0 0 0 
0 0 0 