# vtk DataFile Version 2.0
Generated by NetDEM
ASCII 
DATASET POLYDATA
POINTS 500 double
-0.419251 -0.408409 -0.464212 
-0.450005 -0.192243 -0.450034 
-0.404538 -0.0131353 -0.461087 
-0.448988 0.107589 -0.450094 
-0.435021 0.351037 -0.450056 
-0.271487 -0.429859 -0.458958 
-0.302717 -0.223824 -0.450015 
-0.19036 -0.00913369 -0.450031 
-0.173788 0.177792 -0.463937 
-0.256277 0.368224 -0.463939 
-0.0556431 -0.396945 -0.461215 
-0.147676 -0.131627 -0.450042 
-0.0549335 -0.0940589 -0.450043 
0.039228 0.180917 -0.453316 
-0.0289426 0.319243 -0.443832 
0.192503 -0.402374 -0.463287 
0.169529 -0.210368 -0.463388 
0.172608 -0.0027999 -0.462233 
0.162554 0.205743 -0.465049 
0.297142 0.404765 -0.418645 
0.450002 -0.41049 -0.450028 
0.432725 -0.298004 -0.450008 
0.340784 -0.0112826 -0.450016 
0.373615 0.084071 -0.450028 
0.37234 0.440613 -0.464847 
-0.431863 -0.411618 -0.394317 
-0.449994 -0.273108 -0.391216 
-0.406748 -0.0153628 -0.389413 
-0.446335 0.177717 -0.378361 
-0.449827 0.449905 -0.450034 
-0.338506 -0.406784 -0.409392 
-0.251941 -0.131872 -0.450007 
-0.159789 -0.101816 -0.217896 
-0.304466 0.165229 -0.465034 
-0.152355 0.405625 -0.452828 
-0.0927481 -0.38902 -0.399877 
0.306098 -0.248811 -0.140367 
-0.0484191 -0.0182126 -0.31373 
0.0312681 0.260515 -0.45186 
0.126218 0.302694 -0.435578 
0.200206 -0.416737 -0.391038 
0.166826 -0.207073 -0.390321 
0.175355 0.0192643 -0.386841 
0.196593 0.114069 -0.454747 
0.286041 0.366899 -0.326778 
0.378567 -0.450001 -0.392292 
0.435589 -0.355288 -0.367922 
0.275156 -0.211534 -0.45001 
0.450003 0.141925 -0.42143 
0.426091 0.342303 -0.456546 
-0.436675 -0.441002 -0.326009 
-0.288967 -0.216808 -0.35122 
-0.301478 -0.00696964 -0.437752 
-0.288604 0.273982 -0.450012 
-0.450016 0.277419 -0.384154 
-0.183585 -0.370762 -0.451567 
0.184761 -0.337949 -0.305591 
-0.241153 -0.0514112 -0.188886 
-0.173574 0.0787797 -0.451386 
-0.350249 0.331182 -0.338165 
0.0441743 -0.437719 -0.450373 
0.205618 -0.283578 -0.166817 
0.203804 0.0578393 -0.219176 
-0.0383661 0.224783 -0.396315 
0.255811 0.333104 -0.463076 
0.192108 -0.437873 -0.320448 
0.0527433 -0.0975887 -0.450895 
0.161017 0.064659 -0.333146 
0.267913 0.0625938 -0.441345 
0.112571 0.138611 -0.396458 
0.284632 -0.446854 -0.450007 
0.375611 -0.213045 -0.450099 
0.378463 -0.111025 -0.450058 
0.450011 0.227539 -0.366224 
0.437238 0.25653 -0.460002 
-0.432029 -0.453017 -0.24293 
-0.177968 -0.157632 -0.358392 
-0.236944 -0.000860051 -0.353184 
-0.264305 0.0890768 -0.406705 
-0.35338 0.14141 -0.356668 
-0.164419 -0.449896 -0.396017 
-0.124692 -0.0548737 -0.390089 
-0.241525 0.0461725 -0.228248 
-0.0552039 0.130528 -0.44709 
-0.358487 0.383216 -0.406306 
0.08562 -0.451538 -0.354962 
0.44488 -0.34226 -0.0908473 
-0.188171 -0.232948 -0.45001 
0.0164523 0.0478059 -0.450356 
0.0688675 0.398327 -0.412556 
0.25956 -0.445466 -0.24779 
0.150929 -0.320051 -0.402286 
0.1161 0.0707967 -0.275559 
0.267597 0.173847 -0.443259 
0.142221 0.450005 -0.450016 
0.347343 -0.308211 -0.367983 
0.45 -0.105559 -0.380453 
0.389883 0.151454 -0.341819 
0.331814 0.310806 -0.412156 
0.438344 0.370968 -0.377228 
-0.385888 -0.439703 -0.17048 
-0.36929 -0.356657 -0.125661 
-0.295423 -0.0424041 -0.280897 
-0.360381 0.0687256 -0.425093 
-0.449988 0.432421 -0.351618 
-0.271647 -0.442239 -0.362381 
-0.062955 -0.158468 -0.373826 
-0.241966 0.0344493 -0.128958 
-0.00297808 -0.0256801 -0.397341 
-0.424296 0.243218 -0.463712 
0.0838184 -0.342882 -0.440946 
0.355734 -0.210436 -0.0624919 
0.0447659 -0.121322 -0.354136 
0.0249596 0.0407719 -0.356267 
-0.0034993 0.434987 -0.463819 
0.30099 -0.38668 -0.220811 
0.259361 -0.316362 -0.424847 
0.0345753 0.0683114 -0.26516 
0.250703 0.245022 -0.385048 
0.346864 0.449882 -0.276635 
0.311598 -0.397303 -0.339969 
0.450071 -0.20642 -0.383814 
0.44992 -0.0309786 -0.450011 
0.345867 0.211886 -0.408219 
0.400193 0.452385 -0.374561 
-0.462228 -0.451898 -0.126726 
-0.321453 -0.14118 -0.291148 
-0.450967 -0.0279243 -0.32232 
-0.254074 0.198242 -0.39454 
-0.302297 0.450012 -0.368822 
-0.168909 -0.373854 -0.342265 
-0.0839934 -0.219715 -0.450019 
-0.198702 -0.163603 -0.149588 
-0.136349 0.151227 -0.401978 
-0.227458 0.336858 -0.394375 
-0.0901307 -0.307705 -0.451246 
0.282396 -0.320751 -0.0749931 
0.450003 0.0530744 -0.167839 
0.039556 0.122077 -0.334094 
-0.118436 0.312715 -0.413442 
0.145232 -0.447751 -0.25479 
0.239811 -0.140169 -0.395055 
0.106656 -0.0215116 -0.230193 
0.195654 0.30662 -0.341417 
0.199683 0.386298 -0.397177 
0.449991 -0.443244 -0.322576 
0.328588 -0.172646 -0.371624 
0.25152 -0.0588595 -0.450026 
0.448202 0.0476189 -0.388216 
0.44075 0.409424 -0.301131 
-0.438024 -0.458084 -0.0128392 
-0.228902 -0.175031 -0.274131 
-0.422654 -0.109755 -0.408304 
-0.20728 0.26886 -0.338468 
-0.347428 0.239242 -0.376993 
-0.145153 -0.292591 -0.373324 
0.127928 -0.450009 -0.0962942 
-0.302932 0.368003 -0.191165 
-0.104672 0.274255 -0.33263 
-0.221721 0.461457 -0.451594 
-0.00152577 -0.338841 -0.372402 
0.114656 -0.243243 -0.15664 
-0.182259 -0.0687465 -0.309539 
0.0163332 0.200681 -0.305113 
0.0166767 0.295653 -0.351986 
0.0738641 -0.405944 -0.275926 
0.137944 -0.0986155 -0.402009 
0.255221 -0.116077 -0.267039 
0.235748 0.185268 -0.328282 
0.137347 0.448762 -0.350146 
0.384665 -0.230238 -0.312139 
0.343736 -0.0671854 -0.367146 
0.318723 0.0528654 -0.372503 
0.40643 0.300746 -0.309978 
0.4468 0.378994 -0.216826 
-0.323547 -0.445174 -0.0956506 
-0.450014 -0.100246 -0.269134 
-0.359538 0.01072 -0.261565 
-0.450005 0.0698894 -0.357521 
-0.41401 0.265624 -0.291682 
-0.264224 -0.310858 -0.446285 
-0.18298 -0.275707 -0.263369 
-0.142488 0.399292 -0.0879714 
-0.121559 0.190944 -0.335646 
-0.136783 0.44121 -0.355716 
-0.000449374 -0.43508 -0.358461 
0.0163826 -0.0943821 -0.262121 
0.0159438 -0.224268 -0.450007 
-0.0244456 0.271603 -0.254346 
-0.00415552 0.406719 -0.370619 
0.0714349 -0.425977 -0.17542 
0.0998521 -0.0408601 -0.334164 
0.284476 -0.160002 -0.192378 
0.201075 0.133888 -0.277986 
0.247388 0.450029 -0.286715 
0.450005 -0.307727 -0.281147 
0.450005 -0.146334 -0.289163 
0.366738 0.0372204 -0.286163 
0.318947 0.252344 -0.308777 
0.383775 0.428757 -0.201411 
-0.24688 -0.445354 -0.170416 
-0.445327 0.231794 -0.20282 
-0.290537 0.187226 -0.192522 
-0.146644 0.0714064 -0.332175 
-0.369554 0.450004 -0.29485 
-0.230321 -0.34821 -0.246685 
-0.0436349 -0.258304 -0.32202 
0.0169435 -0.24238 -0.24408 
-0.100499 0.11981 -0.245145 
-0.164873 0.348008 -0.330638 
-0.046121 -0.384378 -0.296654 
-0.194037 -0.0944128 0.151314 
-0.0297871 0.207087 -0.17187 
-0.054052 0.101502 -0.333489 
0.106647 0.355134 -0.337741 
0.262108 -0.437193 -0.144968 
0.218699 -0.197255 -0.311669 
0.291792 -0.105707 -0.13009 
0.14978 0.22361 -0.296985 
0.193343 0.362382 -0.265841 
0.406829 -0.392091 -0.248271 
0.437618 -0.224233 -0.227524 
0.434911 -0.0281383 -0.319025 
0.303757 0.116098 -0.29652 
0.409702 0.403257 -0.128012 
-0.260268 -0.334308 -0.15552 
-0.420015 -0.33411 -0.317854 
-0.434735 0.338944 -0.136212 
-0.342761 0.324483 -0.0728844 
-0.448327 0.421555 -0.0174528 
-0.143272 -0.419983 -0.260111 
-0.0501394 0.139561 -0.0759376 
-0.25935 -0.174315 -0.0393743 
-0.18007 0.176545 -0.198243 
-0.158294 0.338741 -0.223528 
-0.0664297 -0.383734 -0.212033 
-0.140138 -0.140871 -0.0302379 
-0.109773 -0.0211392 -0.186411 
-0.00836064 0.109935 -0.200808 
0.027479 0.447235 -0.281544 
0.29762 -0.330024 -0.174482 
0.25037 -0.292222 -0.342595 
0.349771 -0.0505614 -0.0810508 
0.150826 0.277044 -0.232131 
0.209454 0.401511 -0.146039 
0.356801 -0.450014 -0.174438 
0.449848 -0.199486 -0.0944474 
0.339038 0.129061 -0.0210751 
0.449998 0.151976 -0.182605 
0.423191 0.38593 -0.0468163 
-0.295811 -0.322366 -0.350112 
-0.120296 -0.202566 -0.290191 
-0.3274 -0.0141374 -0.158097 
-0.222704 0.195601 -0.272187 
-0.420011 0.447407 -0.208596 
-0.250302 -0.430246 -0.276315 
0.0923018 -0.280436 -0.312075 
-0.306758 0.255785 -0.13732 
-0.244747 0.299602 -0.212262 
-0.148785 0.441917 -0.251481 
0.0127529 -0.381367 -0.171884 
0.450024 -0.391385 -0.00393966 
0.0757637 0.439736 -0.190889 
-0.0748353 0.406159 -0.325491 
-0.0403767 0.449156 -0.223042 
0.356576 -0.392862 -0.0964098 
0.372942 -0.0984921 -0.176515 
0.189678 -0.023275 -0.29251 
0.217991 0.203181 -0.214658 
0.0910747 0.243304 -0.369052 
0.351941 -0.305993 -0.255642 
0.348115 -0.15237 -0.26104 
0.450002 0.0925912 -0.287788 
0.449998 0.211272 -0.267585 
0.40653 0.451847 -0.0259654 
-0.341258 -0.393976 0.00281249 
-0.138415 -0.346071 -0.159774 
-0.435659 -0.113983 -0.185165 
-0.450011 0.0949034 -0.186119 
-0.342846 0.197432 -0.274509 
-0.146949 -0.444738 -0.176369 
-0.0687673 -0.278184 -0.206244 
-0.225817 0.448822 -0.304431 
-0.281892 0.309309 -0.284768 
-0.227174 0.433865 -0.189212 
0.039625 -0.406987 -0.0877393 
-0.115705 0.450003 0.111642 
0.0362452 0.183434 -0.100629 
-0.0720976 0.30778 -0.206484 
0.0120365 0.365821 -0.220428 
0.271544 -0.415131 -0.0357727 
0.0292729 -0.0942165 -0.0224741 
0.145224 -0.0403245 -0.147389 
0.286921 0.175279 -0.161046 
0.0577369 0.261293 -0.174853 
0.398597 -0.283065 -0.156764 
0.450006 -0.140115 -0.174915 
0.330172 -0.0542935 -0.268924 
0.450002 0.279868 -0.194841 
0.301546 0.415245 -0.0933438 
-0.292053 -0.352047 -0.0655082 
-0.423985 -0.000413989 -0.201492 
-0.394717 -0.289554 -0.0788418 
-0.430442 0.138634 -0.287547 
-0.450011 0.450004 -0.113275 
-0.157547 -0.423697 -0.0768849 
-0.132313 -0.318472 -0.0635285 
-0.283638 0.0881462 -0.308625 
-0.133663 0.276122 -0.11914 
-0.244525 0.384992 -0.105592 
-0.0226509 -0.425477 -0.0243091 
-0.408635 -0.176295 -0.325268 
0.00395873 -0.00224691 -0.225333 
-0.0385139 0.288794 -0.10553 
-0.0100119 0.44386 -0.134917 
0.150399 -0.38409 -0.0212031 
0.44909 0.00396169 0.0101344 
0.0759313 -0.027592 -0.0819196 
0.300619 0.33588 -0.229389 
0.283083 0.449932 -0.193296 
0.373134 -0.450012 -0.0294755 
0.435724 -0.0485772 0.0812684 
0.24626 -0.0525458 -0.350388 
0.347006 0.257422 -0.20308 
0.43825 0.452278 0.0636864 
-0.352353 -0.213577 -0.0327771 
-0.395698 -0.285753 -0.193213 
-0.412001 0.101409 -0.107335 
-0.388875 0.321832 -0.212947 
-0.450002 0.360594 -0.282045 
-0.173126 -0.435807 0.0406046 
-0.0598768 -0.150472 -0.229931 
-0.222418 0.293965 -0.0993468 
-0.100808 0.389125 -0.174366 
-0.0747592 0.438395 -0.0535253 
-0.0917744 -0.44939 0.0177112 
0.0814258 -0.166242 -0.237551 
-0.0720732 0.0657861 -0.139852 
0.0382317 0.24984 -0.0432727 
0.00712221 0.422731 -0.0639932 
0.137635 -0.342664 -0.117697 
0.178315 -0.189763 -0.227314 
0.118636 0.152333 -0.207262 
0.30864 0.221165 -0.0768817 
0.169575 0.449993 -0.223912 
0.45 -0.4172 -0.159026 
0.319408 -0.264486 0.0133817 
0.413525 -0.0230192 -0.221485 
0.366823 0.165287 -0.236503 
0.415256 0.269679 0.148306 
-0.420124 -0.378712 0.0508529 
-0.450002 -0.219985 -0.245409 
-0.366182 0.219189 -0.0865345 
-0.447725 0.0595553 -0.0166578 
-0.450025 0.192635 -0.110926 
-0.224079 -0.379272 -0.0081456 
-0.27661 -0.10685 -0.111133 
-0.325793 -0.104682 -0.19815 
-0.190898 0.354816 -0.00710761 
-0.131366 0.400495 0.0152365 
0.0371628 -0.189441 -0.134351 
-0.15104 -0.250154 -0.134218 
0.21759 0.122435 -0.118807 
0.101387 0.324844 -0.0743818 
-0.0222179 0.439789 0.0281455 
0.0813435 -0.217106 -0.0326296 
0.455188 -0.0685087 -0.114593 
0.281966 0.0640954 -0.0385093 
0.185075 0.226808 -0.128895 
0.10258 0.333503 0.0629583 
0.399598 -0.0826967 -0.0122667 
0.449934 -0.269352 -0.0225745 
0.3633 0.00992391 -0.141546 
0.4257 0.115095 -0.0928868 
0.322571 0.32228 -0.129549 
-0.426259 -0.19524 -0.154706 
-0.450003 -0.235554 -0.0397503 
-0.399152 -0.0076165 -0.105277 
-0.450001 0.279908 0.0481482 
-0.34011 0.450016 -0.147715 
-0.237373 -0.301593 0.0575768 
-0.273709 -0.271772 -0.0221925 
-0.325891 0.0668968 -0.0622875 
-0.120288 0.219016 -0.0506511 
-0.124379 0.190796 0.019495 
0.0265367 -0.310602 -0.025339 
-0.119227 -0.106688 -0.126615 
0.108623 0.114519 -0.10383 
-0.157338 0.10455 -0.133123 
0.0427974 0.405363 0.102813 
0.0395748 -0.292053 -0.155249 
0.283014 -0.0737688 -0.0222346 
0.264939 0.0239861 -0.109839 
0.184409 0.284667 -0.0494054 
0.137019 0.334191 -0.168967 
0.325964 -0.343319 0.0745829 
0.257378 -0.18042 -0.0798006 
0.416727 0.191542 -0.0288203 
0.404233 0.240014 -0.115386 
0.436928 0.285523 -0.0300978 
-0.335411 -0.341547 0.0846255 
-0.339523 -0.233589 -0.257441 
-0.448921 -0.063951 -0.0375257 
-0.449979 0.129341 0.0655278 
-0.278181 0.367682 -0.00993411 
-0.064879 -0.182274 -0.146086 
-0.178146 -0.232903 -0.0395273 
-0.242188 -0.00744037 -0.0381681 
-0.285186 0.220035 -0.0211394 
-0.204378 0.413235 0.0795356 
0.206246 -0.0601695 -0.102881 
-0.000745978 -0.0815597 -0.164332 
-0.137987 -0.0321081 0.0967729 
-0.0280157 0.246292 0.0211565 
-0.0742479 0.343687 0.0622565 
0.31459 -0.44096 0.0648936 
0.32999 -0.210849 0.0975981 
0.175248 0.038327 -0.1341 
0.264758 0.28534 -0.00985372 
0.239158 0.449995 -0.0231823 
0.450002 -0.169741 0.00103247 
0.317384 0.360387 -0.0169732 
0.450005 0.0888564 0.000514641 
0.434365 0.163258 0.0654617 
0.38246 0.364067 0.0615199 
-0.401622 -0.390575 0.141292 
-0.4285 -0.265484 0.053203 
-0.194834 -0.0678446 -0.0841958 
-0.442715 0.283454 -0.0686708 
-0.386699 0.349125 0.013491 
-0.209775 -0.392058 0.0912109 
-0.253667 -0.0292295 0.0918175 
-0.0433319 -0.0164169 -0.0907064 
-0.274165 0.133919 -0.113493 
-0.286914 0.395742 0.146009 
0.191088 -0.438574 0.0299772 
0.117449 -0.137688 -0.148754 
0.0302655 0.0543499 -0.120865 
-0.0869212 0.109439 0.0527563 
-0.0417182 0.405757 0.146105 
0.311319 -0.41498 0.159223 
0.202835 -0.117122 -0.00805652 
0.102839 0.191428 -0.03571 
0.263726 0.170975 0.126145 
0.154 0.417615 -0.0644063 
0.412695 -0.450004 0.0679618 
0.334719 -0.1599 0.0211992 
-0.214535 0.0999873 -0.0582934 
0.358107 0.213299 0.10645 
0.320347 0.446554 0.0460116 
-0.441852 -0.450037 0.166373 
-0.279176 0.0492979 0.0354066 
-0.391978 -0.00424589 0.020163 
-0.415843 0.15394 -0.025302 
-0.450003 0.41673 0.0823953 
-0.295358 -0.446696 0.0612766 
-0.237097 -0.153958 0.055966 
-0.169975 0.0275418 0.0215539 
-0.334989 0.126372 0.029079 
-0.425652 0.403902 0.183336 
0.237072 -0.246549 0.111309 
-0.0471711 -0.143979 -0.0669646 
-0.0911415 0.0605879 -0.0303258 
0.0232885 0.33509 0.00340876 
0.0111227 0.302874 0.0921066 
0.188112 -0.245247 -0.0800971 
0.212704 -0.290632 0.0211963 
0.186905 -0.0063959 -0.0311816 
0.192341 0.17064 -0.0182639 
0.0807122 0.426617 0.00302111 
0.425128 -0.35203 0.0845462 
0.449969 -0.146099 0.0981952 
0.344188 0.00629404 0.00985073 
0.268963 0.168756 0.0381984 
0.45187 0.353533 0.110821 
-0.31222 -0.309179 0.149387 
-0.193765 -0.0700671 0.0229235 
-0.436666 -0.00947895 0.123602 
-0.370857 0.220323 0.0344475 
-0.359522 0.449998 0.108965 
-0.17381 -0.240852 0.0604442 
-0.187746 -0.192861 0.134951 
-0.0873933 -0.0305916 0.0105455 
-0.306157 0.306195 0.0607592 
-0.213078 0.238335 0.0477383 
-0.0478037 -0.119312 0.0283277 
-0.0184261 -0.255511 -0.0866122 
0.0182974 0.00296816 -0.0143747 
0.233646 -0.160153 0.0556314 
0.0121353 0.448057 0.211379 
0.217341 -0.366368 0.0924983 
0.445178 -0.293559 0.151346 
0.304693 0.0636084 0.0821583 
0.18167 0.249254 0.0499463 
0.184464 0.366114 0.0157297 
0.405248 -0.410154 0.163476 
0.448869 -0.202671 0.180647 
0.323388 -0.0710132 0.0716378 
0.397972 0.0855644 0.1172 
0.233966 0.424949 0.0876988 
VERTICES 500 1000
1 0
1 1
1 2
1 3
1 4
1 5
1 6
1 7
1 8
1 9
1 10
1 11
1 12
1 13
1 14
1 15
1 16
1 17
1 18
1 19
1 20
1 21
1 22
1 23
1 24
1 25
1 26
1 27
1 28
1 29
1 30
1 31
1 32
1 33
1 34
1 35
1 36
1 37
1 38
1 39
1 40
1 41
1 42
1 43
1 44
1 45
1 46
1 47
1 48
1 49
1 50
1 51
1 52
1 53
1 54
1 55
1 56
1 57
1 58
1 59
1 60
1 61
1 62
1 63
1 64
1 65
1 66
1 67
1 68
1 69
1 70
1 71
1 72
1 73
1 74
1 75
1 76
1 77
1 78
1 79
1 80
1 81
1 82
1 83
1 84
1 85
1 86
1 87
1 88
1 89
1 90
1 91
1 92
1 93
1 94
1 95
1 96
1 97
1 98
1 99
1 100
1 101
1 102
1 103
1 104
1 105
1 106
1 107
1 108
1 109
1 110
1 111
1 112
1 113
1 114
1 115
1 116
1 117
1 118
1 119
1 120
1 121
1 122
1 123
1 124
1 125
1 126
1 127
1 128
1 129
1 130
1 131
1 132
1 133
1 134
1 135
1 136
1 137
1 138
1 139
1 140
1 141
1 142
1 143
1 144
1 145
1 146
1 147
1 148
1 149
1 150
1 151
1 152
1 153
1 154
1 155
1 156
1 157
1 158
1 159
1 160
1 161
1 162
1 163
1 164
1 165
1 166
1 167
1 168
1 169
1 170
1 171
1 172
1 173
1 174
1 175
1 176
1 177
1 178
1 179
1 180
1 181
1 182
1 183
1 184
1 185
1 186
1 187
1 188
1 189
1 190
1 191
1 192
1 193
1 194
1 195
1 196
1 197
1 198
1 199
1 200
1 201
1 202
1 203
1 204
1 205
1 206
1 207
1 208
1 209
1 210
1 211
1 212
1 213
1 214
1 215
1 216
1 217
1 218
1 219
1 220
1 221
1 222
1 223
1 224
1 225
1 226
1 227
1 228
1 229
1 230
1 231
1 232
1 233
1 234
1 235
1 236
1 237
1 238
1 239
1 240
1 241
1 242
1 243
1 244
1 245
1 246
1 247
1 248
1 249
1 250
1 251
1 252
1 253
1 254
1 255
1 256
1 257
1 258
1 259
1 260
1 261
1 262
1 263
1 264
1 265
1 266
1 267
1 268
1 269
1 270
1 271
1 272
1 273
1 274
1 275
1 276
1 277
1 278
1 279
1 280
1 281
1 282
1 283
1 284
1 285
1 286
1 287
1 288
1 289
1 290
1 291
1 292
1 293
1 294
1 295
1 296
1 297
1 298
1 299
1 300
1 301
1 302
1 303
1 304
1 305
1 306
1 307
1 308
1 309
1 310
1 311
1 312
1 313
1 314
1 315
1 316
1 317
1 318
1 319
1 320
1 321
1 322
1 323
1 324
1 325
1 326
1 327
1 328
1 329
1 330
1 331
1 332
1 333
1 334
1 335
1 336
1 337
1 338
1 339
1 340
1 341
1 342
1 343
1 344
1 345
1 346
1 347
1 348
1 349
1 350
1 351
1 352
1 353
1 354
1 355
1 356
1 357
1 358
1 359
1 360
1 361
1 362
1 363
1 364
1 365
1 366
1 367
1 368
1 369
1 370
1 371
1 372
1 373
1 374
1 375
1 376
1 377
1 378
1 379
1 380
1 381
1 382
1 383
1 384
1 385
1 386
1 387
1 388
1 389
1 390
1 391
1 392
1 393
1 394
1 395
1 396
1 397
1 398
1 399
1 400
1 401
1 402
1 403
1 404
1 405
1 406
1 407
1 408
1 409
1 410
1 411
1 412
1 413
1 414
1 415
1 416
1 417
1 418
1 419
1 420
1 421
1 422
1 423
1 424
1 425
1 426
1 427
1 428
1 429
1 430
1 431
1 432
1 433
1 434
1 435
1 436
1 437
1 438
1 439
1 440
1 441
1 442
1 443
1 444
1 445
1 446
1 447
1 448
1 449
1 450
1 451
1 452
1 453
1 454
1 455
1 456
1 457
1 458
1 459
1 460
1 461
1 462
1 463
1 464
1 465
1 466
1 467
1 468
1 469
1 470
1 471
1 472
1 473
1 474
1 475
1 476
1 477
1 478
1 479
1 480
1 481
1 482
1 483
1 484
1 485
1 486
1 487
1 488
1 489
1 490
1 491
1 492
1 493
1 494
1 495
1 496
1 497
1 498
1 499
POINT_DATA 500
SCALARS id int 1
LOOKUP_TABLE default
0
1
2
3
4
5
6
7
8
9
10
11
12
13
14
15
16
17
18
19
20
21
22
23
24
25
26
27
28
29
30
31
32
33
34
35
36
37
38
39
40
41
42
43
44
45
46
47
48
49
50
51
52
53
54
55
56
57
58
59
60
61
62
63
64
65
66
67
68
69
70
71
72
73
74
75
76
77
78
79
80
81
82
83
84
85
86
87
88
89
90
91
92
93
94
95
96
97
98
99
100
101
102
103
104
105
106
107
108
109
110
111
112
113
114
115
116
117
118
119
120
121
122
123
124
125
126
127
128
129
130
131
132
133
134
135
136
137
138
139
140
141
142
143
144
145
146
147
148
149
150
151
152
153
154
155
156
157
158
159
160
161
162
163
164
165
166
167
168
169
170
171
172
173
174
175
176
177
178
179
180
181
182
183
184
185
186
187
188
189
190
191
192
193
194
195
196
197
198
199
200
201
202
203
204
205
206
207
208
209
210
211
212
213
214
215
216
217
218
219
220
221
222
223
224
225
226
227
228
229
230
231
232
233
234
235
236
237
238
239
240
241
242
243
244
245
246
247
248
249
250
251
252
253
254
255
256
257
258
259
260
261
262
263
264
265
266
267
268
269
270
271
272
273
274
275
276
277
278
279
280
281
282
283
284
285
286
287
288
289
290
291
292
293
294
295
296
297
298
299
300
301
302
303
304
305
306
307
308
309
310
311
312
313
314
315
316
317
318
319
320
321
322
323
324
325
326
327
328
329
330
331
332
333
334
335
336
337
338
339
340
341
342
343
344
345
346
347
348
349
350
351
352
353
354
355
356
357
358
359
360
361
362
363
364
365
366
367
368
369
370
371
372
373
374
375
376
377
378
379
380
381
382
383
384
385
386
387
388
389
390
391
392
393
394
395
396
397
398
399
400
401
402
403
404
405
406
407
408
409
410
411
412
413
414
415
416
417
418
419
420
421
422
423
424
425
426
427
428
429
430
431
432
433
434
435
436
437
438
439
440
441
442
443
444
445
446
447
448
449
450
451
452
453
454
455
456
457
458
459
460
461
462
463
464
465
466
467
468
469
470
471
472
473
474
475
476
477
478
479
480
481
482
483
484
485
486
487
488
489
490
491
492
493
494
495
496
497
498
499
SCALARS type int 1
LOOKUP_TABLE default
0
0
0
0
0
0
0
0
0
0
0
0
0
0
0
0
0
0
0
0
0
0
0
0
0
0
0
0
0
0
0
0
0
0
0
0
0
0
0
0
0
0
0
0
0
0
0
0
0
0
0
0
0
0
0
0
0
0
0
0
0
0
0
0
0
0
0
0
0
0
0
0
0
0
0
0
0
0
0
0
0
0
0
0
0
0
0
0
0
0
0
0
0
0
0
0
0
0
0
0
0
0
0
0
0
0
0
0
0
0
0
0
0
0
0
0
0
0
0
0
0
0
0
0
0
0
0
0
0
0
0
0
0
0
0
0
0
0
0
0
0
0
0
0
0
0
0
0
0
0
0
0
0
0
0
0
0
0
0
0
0
0
0
0
0
0
0
0
0
0
0
0
0
0
0
0
0
0
0
0
0
0
0
0
0
0
0
0
0
0
0
0
0
0
0
0
0
0
0
0
0
0
0
0
0
0
0
0
0
0
0
0
0
0
0
0
0
0
0
0
0
0
0
0
0
0
0
0
0
0
0
0
0
0
0
0
0
0
0
0
0
0
0
0
0
0
0
0
0
0
0
0
0
0
0
0
0
0
0
0
0
0
0
0
0
0
0
0
0
0
0
0
0
0
0
0
0
0
0
0
0
0
0
0
0
0
0
0
0
0
0
0
0
0
0
0
0
0
0
0
0
0
0
0
0
0
0
0
0
0
0
0
0
0
0
0
0
0
0
0
0
0
0
0
0
0
0
0
0
0
0
0
0
0
0
0
0
0
0
0
0
0
0
0
0
0
0
0
0
0
0
0
0
0
0
0
0
0
0
0
0
0
0
0
0
0
0
0
0
0
0
0
0
0
0
0
0
0
0
0
0
0
0
0
0
0
0
0
0
0
0
0
0
0
0
0
0
0
0
0
0
0
0
0
0
0
0
0
0
0
0
0
0
0
0
0
0
0
0
0
0
0
0
0
0
0
0
0
0
0
0
0
0
0
0
0
0
0
0
0
0
0
0
0
0
0
0
0
0
0
0
0
0
0
0
0
0
0
0
0
0
0
0
0
0
0
0
0
0
0
0
0
0
0
0
0
0
0
0
0
0
0
0
0
0
0
0
0
0
0
0
0
0
0
0
0
0
0
0
0
SCALARS damp_viscous double 1
LOOKUP_TABLE default
0
0
0
0
0
0
0
0
0
0
0
0
0
0
0
0
0
0
0
0
0
0
0
0
0
0
0
0
0
0
0
0
0
0
0
0
0
0
0
0
0
0
0
0
0
0
0
0
0
0
0
0
0
0
0
0
0
0
0
0
0
0
0
0
0
0
0
0
0
0
0
0
0
0
0
0
0
0
0
0
0
0
0
0
0
0
0
0
0
0
0
0
0
0
0
0
0
0
0
0
0
0
0
0
0
0
0
0
0
0
0
0
0
0
0
0
0
0
0
0
0
0
0
0
0
0
0
0
0
0
0
0
0
0
0
0
0
0
0
0
0
0
0
0
0
0
0
0
0
0
0
0
0
0
0
0
0
0
0
0
0
0
0
0
0
0
0
0
0
0
0
0
0
0
0
0
0
0
0
0
0
0
0
0
0
0
0
0
0
0
0
0
0
0
0
0
0
0
0
0
0
0
0
0
0
0
0
0
0
0
0
0
0
0
0
0
0
0
0
0
0
0
0
0
0
0
0
0
0
0
0
0
0
0
0
0
0
0
0
0
0
0
0
0
0
0
0
0
0
0
0
0
0
0
0
0
0
0
0
0
0
0
0
0
0
0
0
0
0
0
0
0
0
0
0
0
0
0
0
0
0
0
0
0
0
0
0
0
0
0
0
0
0
0
0
0
0
0
0
0
0
0
0
0
0
0
0
0
0
0
0
0
0
0
0
0
0
0
0
0
0
0
0
0
0
0
0
0
0
0
0
0
0
0
0
0
0
0
0
0
0
0
0
0
0
0
0
0
0
0
0
0
0
0
0
0
0
0
0
0
0
0
0
0
0
0
0
0
0
0
0
0
0
0
0
0
0
0
0
0
0
0
0
0
0
0
0
0
0
0
0
0
0
0
0
0
0
0
0
0
0
0
0
0
0
0
0
0
0
0
0
0
0
0
0
0
0
0
0
0
0
0
0
0
0
0
0
0
0
0
0
0
0
0
0
0
0
0
0
0
0
0
0
0
0
0
0
0
0
0
0
0
0
0
0
0
0
0
0
0
0
0
0
0
0
0
0
0
0
0
0
0
0
0
0
0
0
0
0
0
0
0
0
0
0
0
0
0
0
0
0
0
0
0
0
0
0
0
0
0
SCALARS damp_numerical double 1
LOOKUP_TABLE default
0.5
0.5
0.5
0.5
0.5
0.5
0.5
0.5
0.5
0.5
0.5
0.5
0.5
0.5
0.5
0.5
0.5
0.5
0.5
0.5
0.5
0.5
0.5
0.5
0.5
0.5
0.5
0.5
0.5
0.5
0.5
0.5
0.5
0.5
0.5
0.5
0.5
0.5
0.5
0.5
0.5
0.5
0.5
0.5
0.5
0.5
0.5
0.5
0.5
0.5
0.5
0.5
0.5
0.5
0.5
0.5
0.5
0.5
0.5
0.5
0.5
0.5
0.5
0.5
0.5
0.5
0.5
0.5
0.5
0.5
0.5
0.5
0.5
0.5
0.5
0.5
0.5
0.5
0.5
0.5
0.5
0.5
0.5
0.5
0.5
0.5
0.5
0.5
0.5
0.5
0.5
0.5
0.5
0.5
0.5
0.5
0.5
0.5
0.5
0.5
0.5
0.5
0.5
0.5
0.5
0.5
0.5
0.5
0.5
0.5
0.5
0.5
0.5
0.5
0.5
0.5
0.5
0.5
0.5
0.5
0.5
0.5
0.5
0.5
0.5
0.5
0.5
0.5
0.5
0.5
0.5
0.5
0.5
0.5
0.5
0.5
0.5
0.5
0.5
0.5
0.5
0.5
0.5
0.5
0.5
0.5
0.5
0.5
0.5
0.5
0.5
0.5
0.5
0.5
0.5
0.5
0.5
0.5
0.5
0.5
0.5
0.5
0.5
0.5
0.5
0.5
0.5
0.5
0.5
0.5
0.5
0.5
0.5
0.5
0.5
0.5
0.5
0.5
0.5
0.5
0.5
0.5
0.5
0.5
0.5
0.5
0.5
0.5
0.5
0.5
0.5
0.5
0.5
0.5
0.5
0.5
0.5
0.5
0.5
0.5
0.5
0.5
0.5
0.5
0.5
0.5
0.5
0.5
0.5
0.5
0.5
0.5
0.5
0.5
0.5
0.5
0.5
0.5
0.5
0.5
0.5
0.5
0.5
0.5
0.5
0.5
0.5
0.5
0.5
0.5
0.5
0.5
0.5
0.5
0.5
0.5
0.5
0.5
0.5
0.5
0.5
0.5
0.5
0.5
0.5
0.5
0.5
0.5
0.5
0.5
0.5
0.5
0.5
0.5
0.5
0.5
0.5
0.5
0.5
0.5
0.5
0.5
0.5
0.5
0.5
0.5
0.5
0.5
0.5
0.5
0.5
0.5
0.5
0.5
0.5
0.5
0.5
0.5
0.5
0.5
0.5
0.5
0.5
0.5
0.5
0.5
0.5
0.5
0.5
0.5
0.5
0.5
0.5
0.5
0.5
0.5
0.5
0.5
0.5
0.5
0.5
0.5
0.5
0.5
0.5
0.5
0.5
0.5
0.5
0.5
0.5
0.5
0.5
0.5
0.5
0.5
0.5
0.5
0.5
0.5
0.5
0.5
0.5
0.5
0.5
0.5
0.5
0.5
0.5
0.5
0.5
0.5
0.5
0.5
0.5
0.5
0.5
0.5
0.5
0.5
0.5
0.5
0.5
0.5
0.5
0.5
0.5
0.5
0.5
0.5
0.5
0.5
0.5
0.5
0.5
0.5
0.5
0.5
0.5
0.5
0.5
0.5
0.5
0.5
0.5
0.5
0.5
0.5
0.5
0.5
0.5
0.5
0.5
0.5
0.5
0.5
0.5
0.5
0.5
0.5
0.5
0.5
0.5
0.5
0.5
0.5
0.5
0.5
0.5
0.5
0.5
0.5
0.5
0.5
0.5
0.5
0.5
0.5
0.5
0.5
0.5
0.5
0.5
0.5
0.5
0.5
0.5
0.5
0.5
0.5
0.5
0.5
0.5
0.5
0.5
0.5
0.5
0.5
0.5
0.5
0.5
0.5
0.5
0.5
0.5
0.5
0.5
0.5
0.5
0.5
0.5
0.5
0.5
0.5
0.5
0.5
0.5
0.5
0.5
0.5
0.5
0.5
0.5
0.5
0.5
0.5
0.5
0.5
0.5
0.5
0.5
0.5
0.5
0.5
0.5
0.5
0.5
0.5
0.5
0.5
0.5
0.5
0.5
0.5
0.5
0.5
0.5
0.5
0.5
0.5
0.5
0.5
0.5
0.5
0.5
0.5
0.5
0.5
0.5
0.5
0.5
0.5
0.5
0.5
0.5
0.5
0.5
0.5
0.5
0.5
0.5
0.5
0.5
0.5
0.5
0.5
0.5
0.5
0.5
0.5
SCALARS quat double 4
LOOKUP_TABLE default
0.962343 0.0898923 -0.0586365 0.249753 
0.789729 0.126764 0.60018 0.00660724 
0.988046 0.0980348 -0.0283745 -0.115537 
-0.365153 -0.503895 -0.5356 -0.570863 
0.10069 0.714361 -0.408058 0.559499 
0.807239 -0.287011 -0.20035 0.475237 
0.0480594 -0.25174 -0.371676 0.892286 
0.891478 0.0594819 0.353269 0.277361 
-0.104155 0.419653 0.901498 -0.0185646 
0.0456339 0.0840077 0.0198703 0.995221 
0.932937 -0.136734 -0.0805859 0.323169 
0.104463 -0.935211 -0.13785 -0.308974 
0.0867336 0.412255 -0.0656633 0.904551 
0.609741 0.700423 0.357506 -0.0990578 
0.324863 0.82405 -0.213323 0.412189 
0.995314 0.0817021 -0.0483273 0.0184057 
0.641334 0.0552065 -0.0381618 0.764321 
0.990718 0.0510984 -0.0211471 0.124174 
0.975705 0.111105 -0.0922141 0.164779 
-0.758763 0.20346 0.612406 0.0885578 
0.831685 0.145454 0.506552 -0.174782 
-0.285301 0.852863 -0.288328 0.328778 
0.788959 -0.291691 -0.462511 -0.280257 
0.477224 0.733945 -0.455508 -0.161539 
0.984743 0.0907677 -0.0948954 0.114179 
0.927939 0.154272 -0.173963 0.291318 
-0.637996 0.665564 -0.344751 0.176443 
0.97077 0.141882 -0.173331 -0.086211 
0.833301 -0.253956 -0.440054 0.217872 
-0.158495 0.385952 -0.330032 0.846758 
0.724486 0.344238 0.533153 0.269014 
0.0934469 -0.723366 -0.346859 -0.589659 
0.22377 -0.0409095 -0.926559 0.299569 
0.138972 0.121013 0.0776437 0.979803 
0.536663 0.754645 0.162459 -0.340751 
0.414567 -0.148549 0.00931403 0.897764 
-0.295558 0.518137 -0.477861 0.644847 
0.264618 0.307124 0.283171 0.869176 
0.743813 -0.621235 -0.224558 0.1019 
0.591272 0.618253 -0.125135 -0.502496 
0.947072 0.146646 -0.174013 0.226427 
0.689973 0.192628 -0.108487 0.689247 
0.977356 -0.206103 -0.0461075 -0.0130909 
0.0122592 0.828247 0.53423 -0.168685 
0.759217 -0.540934 -0.30137 -0.200388 
0.277807 0.245969 -0.670136 0.642838 
0.550966 -0.162482 0.155328 -0.803685 
-0.948242 0.132427 -0.175297 0.229284 
0.370798 0.759283 -0.421694 0.328896 
-0.855674 0.491284 0.0869304 -0.137494 
0.926155 0.296158 -0.198053 -0.123705 
-0.0660207 0.226221 0.905594 -0.352654 
0.794765 0.103705 0.571901 -0.174707 
-0.644224 0.432821 -0.630493 0.0109337 
-0.467956 0.520792 0.443894 -0.559242 
-0.600694 0.532492 0.462639 -0.376277 
0.0484126 0.215072 0.973052 -0.0676057 
0.00934731 -0.0536963 -0.880233 -0.471401 
-0.195464 0.14178 0.733476 -0.635378 
0.341842 -0.917747 -0.201486 0.0169855 
-0.435418 0.247336 0.646583 -0.57547 
-0.880764 -0.0955027 0.032393 0.462693 
-0.313712 -0.708405 0.135625 0.617538 
0.164099 0.219685 0.95044 0.14654 
-0.100259 0.0287028 0.991117 -0.082528 
0.909938 0.250834 -0.298454 -0.141493 
-0.11843 -0.954739 -0.193176 0.192693 
0.956375 -0.17325 -0.146618 0.183939 
0.892704 0.0720697 0.403211 -0.187898 
-0.94526 -0.0482036 -0.0712177 -0.314783 
0.65049 -0.529522 -0.323094 0.438269 
-0.592809 -0.713282 -0.35831 -0.106863 
0.322712 0.37862 0.0310168 -0.866915 
-0.615373 0.721397 -0.271532 -0.164841 
0.944353 -0.234943 0.0210401 -0.229252 
0.958794 0.101722 -0.0919894 -0.248808 
0.588982 -0.0185741 -0.650061 0.479767 
0.883438 -0.306339 0.348245 -0.0664728 
-0.649726 -0.235344 -0.114137 0.713752 
-0.589085 0.232696 -0.0642049 -0.771174 
0.906946 0.225451 0.0431721 -0.353209 
-0.315936 0.8835 -0.00126774 0.345846 
0.804843 -0.20422 0.555843 -0.0395167 
-0.237402 0.834861 -0.27951 0.410514 
0.952025 -0.256717 0.115806 -0.11972 
0.759478 -0.502502 -0.376814 0.169402 
-0.107798 -0.390128 -0.0117959 -0.914353 
0.8065 0.36937 0.256608 -0.383766 
0.326587 0.926433 0.0648572 -0.175658 
-0.218452 0.570237 -0.683084 0.400631 
0.836496 -0.273063 0.410586 -0.23902 
-0.787909 0.355616 -0.490255 0.111292 
0.874189 -0.0506147 -0.413759 0.24907 
0.816535 -0.42402 0.391303 0.0189418 
0.787818 0.0442606 0.343849 -0.509069 
0.245641 -0.532894 -0.478212 -0.653451 
0.22288 -0.806608 0.503159 0.215727 
0.0997342 -0.126755 -0.809164 0.565013 
-0.584735 0.606434 0.273637 -0.464162 
0.984622 -0.115697 -0.014587 -0.13008 
0.844472 -0.102167 -0.096649 -0.516805 
0.37005 0.49894 0.736195 0.268586 
-0.0829209 0.430665 -0.892245 0.107474 
-0.583651 -0.53729 -0.608087 0.0300142 
-0.202093 -0.0700895 -0.537241 0.815854 
0.947596 -0.121612 0.237877 0.175179 
-0.806284 0.407377 0.249845 -0.34861 
0.301362 0.746078 0.57114 0.16232 
0.829916 0.441688 -0.146548 -0.307693 
0.00189665 0.225282 -0.971452 0.0743408 
0.245604 -0.563169 -0.327961 0.717608 
-0.400582 -0.239278 0.69081 0.552323 
-0.0810933 -0.321858 0.207581 -0.920186 
0.836891 -0.255979 0.437083 0.207478 
-0.255241 0.0518446 0.0598941 0.963627 
0.904005 -0.364424 0.215478 -0.0594849 
-0.0451949 -0.800382 0.592857 0.0765935 
0.418083 -0.0776064 -0.395184 0.814256 
0.877091 0.0786863 0.105939 0.461841 
0.208426 0.167079 -0.816429 0.511944 
-0.0256119 0.18262 0.390543 -0.901926 
-0.108017 -0.312907 -0.756488 0.564046 
0.323814 -0.463008 -0.414204 -0.713584 
-0.91045 -0.205148 -0.285415 0.218022 
0.785937 -0.571632 0.0223916 0.234605 
0.750982 0.332214 -0.546116 -0.165579 
0.451958 0.611103 0.555315 -0.337509 
0.53314 0.258559 0.197327 -0.781006 
-0.399566 0.115217 0.903697 -0.101999 
0.462979 -0.439854 0.692609 0.335367 
-0.0327383 0.501858 0.719548 -0.478872 
-0.995952 -0.0531189 -0.0573935 0.0443186 
-0.108198 -0.613303 -0.775997 -0.0999002 
0.225872 0.186601 -0.956115 0.0024357 
0.122144 -0.918799 0.190389 0.323484 
0.118348 -0.0584523 0.821064 0.555365 
0.253621 0.740447 0.257912 0.566476 
-0.694926 -0.704843 0.057629 -0.130205 
0.289608 0.924845 -0.166497 -0.181843 
-0.0935009 0.805311 -0.585425 0.00312589 
-0.381035 0.174968 -0.861499 0.286389 
0.404904 -0.355516 0.191552 0.820347 
-0.0859297 0.509451 -0.166312 0.839891 
0.936471 -0.281546 -0.179057 0.108128 
0.0110639 -0.509039 -0.780461 -0.362819 
-0.413388 -0.836323 0.216627 0.287658 
0.665591 -0.553844 0.423884 -0.265646 