# vtk DataFile Version 2.0
Generated by NetDEM
ASCII 
DATASET POLYDATA
POINTS 250 double
-0.416937 -0.405471 -0.462869 
-0.403333 -0.203333 -0.450007 
-0.411187 -0.00741204 -0.464104 
-0.403676 0.196995 -0.450009 
-0.402763 0.397237 -0.450007 
-0.264683 -0.432758 -0.459563 
-0.203538 -0.203538 -0.450007 
-0.203218 -0.00321788 -0.450007 
-0.175856 0.205821 -0.457713 
-0.246756 0.36913 -0.465051 
-0.0312477 -0.402157 -0.452179 
-0.00366947 -0.203669 -0.450007 
-0.00360232 -0.00360232 -0.450007 
0.0345098 0.181179 -0.452134 
-0.0372162 0.393395 -0.46506 
0.18904 -0.398241 -0.464453 
0.174446 -0.212333 -0.464884 
0.172947 -0.00936796 -0.46258 
0.158274 0.20891 -0.464095 
0.196913 0.396913 -0.450007 
0.396713 -0.403287 -0.450007 
0.39661 -0.20339 -0.450007 
0.396488 -0.00351175 -0.450007 
0.396508 0.196508 -0.450007 
0.370101 0.441215 -0.464772 
-0.403113 -0.399765 -0.388288 
-0.403333 -0.203333 -0.349793 
-0.412024 -0.00917355 -0.390673 
-0.403465 0.197003 -0.349808 
-0.402763 0.397237 -0.34979 
-0.300775 -0.40478 -0.384436 
-0.203538 -0.203538 -0.349791 
-0.203218 -0.00321788 -0.349801 
-0.299685 0.161467 -0.463578 
-0.155284 0.41046 -0.443996 
-0.0363795 -0.388546 -0.379359 
-0.00366947 -0.203669 -0.349793 
-0.00360232 -0.00360232 -0.349805 
0.000554181 0.244744 -0.435135 
0.0394933 0.353492 -0.412675 
0.187698 -0.396661 -0.392014 
0.192434 -0.206276 -0.39063 
0.186001 -0.0130933 -0.383946 
0.19876 0.117708 -0.449459 
0.196913 0.396913 -0.349798 
0.396713 -0.403287 -0.349795 
0.39661 -0.20339 -0.349784 
0.396488 -0.00351175 -0.349791 
0.396508 0.196508 -0.349792 
0.384449 0.360471 -0.440993 
-0.401362 -0.403919 -0.315837 
-0.403333 -0.203333 -0.249796 
-0.39356 -0.00243764 -0.311389 
-0.402553 0.197085 -0.249814 
-0.402763 0.397237 -0.249792 
-0.182828 -0.395025 -0.436804 
-0.203538 -0.203538 -0.249794 
-0.203218 -0.00321788 -0.249804 
-0.203461 0.208739 -0.377155 
-0.203381 0.442247 -0.377157 
0.00101115 -0.412394 -0.305376 
-0.00366947 -0.203669 -0.249796 
-0.00360232 -0.00360232 -0.249808 
-0.0325497 0.235521 -0.34576 
0.106189 0.35164 -0.356701 
0.175605 -0.395113 -0.318328 
0.173656 -0.184566 -0.306028 
0.18796 0.00305915 -0.309474 
0.2731 0.0893386 -0.407554 
0.196913 0.396913 -0.249801 
0.396713 -0.403287 -0.249798 
0.39661 -0.20339 -0.249787 
0.396488 -0.00351175 -0.249794 
0.396508 0.196508 -0.249795 
0.410927 0.306047 -0.355319 
-0.409995 -0.405169 -0.240641 
-0.403333 -0.203333 -0.149802 
-0.39294 0.0015756 -0.234795 
-0.402881 0.197066 -0.149819 
-0.402763 0.397237 -0.149798 
-0.139821 -0.409613 -0.345564 
-0.203538 -0.203538 -0.1498 
-0.203218 -0.00321788 -0.149809 
-0.142692 0.186844 -0.324213 
-0.212144 0.422085 -0.289058 
0.0400677 -0.410845 -0.228699 
-0.00366947 -0.203669 -0.149802 
-0.00360232 -0.00360232 -0.149814 
-0.00667683 0.166957 -0.314856 
0.0260567 0.415467 -0.340124 
0.200488 -0.398274 -0.229319 
0.185997 -0.20249 -0.22176 
0.192257 0.00341058 -0.235824 
0.210543 0.193511 -0.374393 
0.196913 0.396913 -0.149807 
0.396713 -0.403287 -0.149804 
0.39661 -0.20339 -0.149793 
0.396488 -0.00351175 -0.1498 
0.396508 0.196508 -0.149801 
0.398097 0.374041 -0.300647 
-0.407829 -0.408179 -0.155994 
-0.403333 -0.203333 -0.0498108 
-0.395846 -0.00506149 -0.152938 
-0.403032 0.197038 -0.0498253 
-0.402763 0.397237 -0.0498068 
-0.238883 -0.400961 -0.3037 
-0.203538 -0.203538 -0.0498091 
-0.203218 -0.00321788 -0.0498169 
-0.212056 0.183476 -0.250679 
-0.228195 0.384279 -0.21975 
0.0139681 -0.390861 -0.15228 
-0.00366947 -0.203669 -0.0498105 
-0.00360232 -0.00360232 -0.0498234 
-0.0167431 0.216553 -0.216519 
-0.0291032 0.423338 -0.257035 
0.198356 -0.404447 -0.157524 
0.200119 -0.235716 -0.137022 
0.187503 0.00102886 -0.162963 
0.187761 0.211081 -0.281761 
0.196913 0.396913 -0.0498154 
0.396713 -0.403287 -0.0498125 
0.39661 -0.20339 -0.049802 
0.396488 -0.00351175 -0.0498087 
0.396508 0.196508 -0.0498102 
0.396285 0.421254 -0.223588 
-0.411922 -0.406533 -0.0793364 
-0.403333 -0.203333 0.0501758 
-0.41851 -0.00430335 -0.0788291 
-0.402923 0.19705 0.0501639 
-0.402763 0.397237 0.0501794 
-0.227537 -0.402852 -0.210587 
-0.203538 -0.203538 0.0501773 
-0.203218 -0.00321788 0.0501707 
-0.214773 0.204409 -0.161409 
-0.189303 0.391898 -0.132552 
-0.0154024 -0.395478 -0.0704123 
-0.00366947 -0.203669 0.0501761 
-0.00360232 -0.00360232 0.0501633 
-0.00804072 0.197281 -0.126301 
-0.00449641 0.388987 -0.175688 
0.207982 -0.400413 -0.078201 
0.194021 -0.210683 -0.0451859 
0.185168 -0.00204148 -0.0862769 
0.20296 0.226115 -0.193058 
0.196913 0.396913 0.0501716 
0.396713 -0.403287 0.0501742 
0.39661 -0.20339 0.0501836 
0.396488 -0.00351175 0.0501778 
0.396508 0.196508 0.0501764 
0.392732 0.398181 -0.129038 
-0.411228 -0.404543 0.000657225 
-0.403333 -0.203333 0.150156 
-0.407298 -0.00222306 0.0120708 
-0.402949 0.197051 0.150146 
-0.402763 0.397237 0.150158 
-0.185887 -0.402993 -0.110607 
-0.203538 -0.203538 0.150157 
-0.203218 -0.00321788 0.150151 
-0.206667 0.205909 -0.0701899 
-0.20358 0.402069 -0.059164 
-0.011905 -0.405405 0.0226575 
-0.00366947 -0.203669 0.150156 
-0.00360232 -0.00360232 0.150144 
0.00420663 0.191115 -0.0269184 
8.90785e-05 0.396173 -0.0844488 
0.18695 -0.407321 -0.00777222 
0.196692 -0.202086 0.0342441 
0.187669 -0.00394506 -0.00822815 
0.198026 0.192558 -0.10629 
0.196913 0.396913 0.150152 
0.396713 -0.403287 0.150154 
0.39661 -0.20339 0.150162 
0.396488 -0.00351175 0.150157 
0.396508 0.196508 0.150156 
0.398798 0.383102 -0.0462562 
-0.408935 -0.403275 0.0806799 
-0.403333 -0.203333 0.250127 
-0.410616 -0.00232568 0.085833 
-0.402953 0.197049 0.25012 
-0.402763 0.397237 0.250128 
-0.204458 -0.402236 -0.0124228 
-0.203538 -0.203538 0.250128 
-0.203218 -0.00321788 0.250123 
-0.200745 0.188929 0.0258306 
-0.205119 0.393455 0.0345601 
-0.00409602 -0.403329 0.118408 
-0.00366947 -0.203669 0.250127 
-0.00360232 -0.00360232 0.250117 
-0.00080217 0.202219 0.0624481 
-0.00408861 0.399045 -0.00361585 
0.201203 -0.399825 0.0863023 
0.196004 -0.202462 0.125662 
0.190047 -0.00649879 0.0693458 
0.191053 0.193587 -0.0078794 
0.196913 0.396913 0.250124 
0.396713 -0.403287 0.250126 
0.39661 -0.20339 0.250131 
0.396488 -0.00351175 0.250128 
0.396508 0.196508 0.250127 
0.395111 0.402893 0.0378163 
-0.405034 -0.40362 0.159155 
-0.403333 -0.203333 0.350091 
-0.402813 -0.00380485 0.161944 
-0.40295 0.19705 0.350086 
-0.402763 0.397237 0.350092 
-0.202792 -0.403123 0.104754 
-0.203538 -0.203538 0.350092 
-0.203218 -0.00321788 0.350088 
-0.203482 0.194695 0.131283 
-0.202514 0.397037 0.141904 
-0.00459322 -0.404143 0.211984 
-0.00366947 -0.203669 0.350091 
-0.00360232 -0.00360232 0.350084 
-0.0012578 0.197048 0.171329 
-0.00269341 0.39731 0.100898 
0.19613 -0.402646 0.158717 
0.195382 -0.2049 0.211407 
0.196364 -0.00364635 0.149123 
0.197198 0.197198 0.0957186 
0.196913 0.396913 0.350089 
0.396713 -0.403287 0.35009 
0.39661 -0.20339 0.350094 
0.396488 -0.00351175 0.350092 
0.396508 0.196508 0.350091 
0.397345 0.395736 0.14614 
-0.403633 -0.403633 0.334152 
-0.403333 -0.203333 0.450052 
-0.403998 -0.00399844 0.333787 
-0.40295 0.19705 0.450049 
-0.402763 0.397237 0.450052 
-0.203099 -0.403099 0.334686 
-0.203538 -0.203538 0.450052 
-0.203218 -0.00321788 0.45005 
-0.203937 0.196063 0.333848 
-0.203347 0.396653 0.334438 
-0.00292062 -0.402921 0.334865 
-0.00366947 -0.203669 0.450052 
-0.00360232 -0.00360232 0.450048 
-0.00217008 0.19783 0.335615 
-0.00266816 0.397332 0.335117 
0.197698 -0.402302 0.335483 
0.196222 -0.203778 0.334007 
0.197391 -0.00260897 0.335176 
0.197198 0.197198 0.334983 
0.196913 0.396913 0.450051 
0.396713 -0.403287 0.450051 
0.39661 -0.20339 0.450053 
0.396488 -0.00351175 0.450052 
0.396508 0.196508 0.450052 
0.396534 0.396534 0.334319 
VERTICES 250 500
1 0
1 1
1 2
1 3
1 4
1 5
1 6
1 7
1 8
1 9
1 10
1 11
1 12
1 13
1 14
1 15
1 16
1 17
1 18
1 19
1 20
1 21
1 22
1 23
1 24
1 25
1 26
1 27
1 28
1 29
1 30
1 31
1 32
1 33
1 34
1 35
1 36
1 37
1 38
1 39
1 40
1 41
1 42
1 43
1 44
1 45
1 46
1 47
1 48
1 49
1 50
1 51
1 52
1 53
1 54
1 55
1 56
1 57
1 58
1 59
1 60
1 61
1 62
1 63
1 64
1 65
1 66
1 67
1 68
1 69
1 70
1 71
1 72
1 73
1 74
1 75
1 76
1 77
1 78
1 79
1 80
1 81
1 82
1 83
1 84
1 85
1 86
1 87
1 88
1 89
1 90
1 91
1 92
1 93
1 94
1 95
1 96
1 97
1 98
1 99
1 100
1 101
1 102
1 103
1 104
1 105
1 106
1 107
1 108
1 109
1 110
1 111
1 112
1 113
1 114
1 115
1 116
1 117
1 118
1 119
1 120
1 121
1 122
1 123
1 124
1 125
1 126
1 127
1 128
1 129
1 130
1 131
1 132
1 133
1 134
1 135
1 136
1 137
1 138
1 139
1 140
1 141
1 142
1 143
1 144
1 145
1 146
1 147
1 148
1 149
1 150
1 151
1 152
1 153
1 154
1 155
1 156
1 157
1 158
1 159
1 160
1 161
1 162
1 163
1 164
1 165
1 166
1 167
1 168
1 169
1 170
1 171
1 172
1 173
1 174
1 175
1 176
1 177
1 178
1 179
1 180
1 181
1 182
1 183
1 184
1 185
1 186
1 187
1 188
1 189
1 190
1 191
1 192
1 193
1 194
1 195
1 196
1 197
1 198
1 199
1 200
1 201
1 202
1 203
1 204
1 205
1 206
1 207
1 208
1 209
1 210
1 211
1 212
1 213
1 214
1 215
1 216
1 217
1 218
1 219
1 220
1 221
1 222
1 223
1 224
1 225
1 226
1 227
1 228
1 229
1 230
1 231
1 232
1 233
1 234
1 235
1 236
1 237
1 238
1 239
1 240
1 241
1 242
1 243
1 244
1 245
1 246
1 247
1 248
1 249
POINT_DATA 250
SCALARS id int 1
LOOKUP_TABLE default
0
1
2
3
4
5
6
7
8
9
10
11
12
13
14
15
16
17
18
19
20
21
22
23
24
25
26
27
28
29
30
31
32
33
34
35
36
37
38
39
40
41
42
43
44
45
46
47
48
49
50
51
52
53
54
55
56
57
58
59
60
61
62
63
64
65
66
67
68
69
70
71
72
73
74
75
76
77
78
79
80
81
82
83
84
85
86
87
88
89
90
91
92
93
94
95
96
97
98
99
100
101
102
103
104
105
106
107
108
109
110
111
112
113
114
115
116
117
118
119
120
121
122
123
124
125
126
127
128
129
130
131
132
133
134
135
136
137
138
139
140
141
142
143
144
145
146
147
148
149
150
151
152
153
154
155
156
157
158
159
160
161
162
163
164
165
166
167
168
169
170
171
172
173
174
175
176
177
178
179
180
181
182
183
184
185
186
187
188
189
190
191
192
193
194
195
196
197
198
199
200
201
202
203
204
205
206
207
208
209
210
211
212
213
214
215
216
217
218
219
220
221
222
223
224
225
226
227
228
229
230
231
232
233
234
235
236
237
238
239
240
241
242
243
244
245
246
247
248
249
SCALARS type int 1
LOOKUP_TABLE default
0
0
0
0
0
0
0
0
0
0
0
0
0
0
0
0
0
0
0
0
0
0
0
0
0
0
0
0
0
0
0
0
0
0
0
0
0
0
0
0
0
0
0
0
0
0
0
0
0
0
0
0
0
0
0
0
0
0
0
0
0
0
0
0
0
0
0
0
0
0
0
0
0
0
0
0
0
0
0
0
0
0
0
0
0
0
0
0
0
0
0
0
0
0
0
0
0
0
0
0
0
0
0
0
0
0
0
0
0
0
0
0
0
0
0
0
0
0
0
0
0
0
0
0
0
0
0
0
0
0
0
0
0
0
0
0
0
0
0
0
0
0
0
0
0
0
0
0
0
0
0
0
0
0
0
0
0
0
0
0
0
0
0
0
0
0
0
0
0
0
0
0
0
0
0
0
0
0
0
0
0
0
0
0
0
0
0
0
0
0
0
0
0
0
0
0
0
0
0
0
0
0
0
0
0
0
0
0
0
0
0
0
0
0
0
0
0
0
0
0
0
0
0
0
0
0
0
0
0
0
0
0
0
0
0
0
0
0
0
0
0
0
0
0
0
0
0
0
0
0
SCALARS damp_viscous double 1
LOOKUP_TABLE default
0
0
0
0
0
0
0
0
0
0
0
0
0
0
0
0
0
0
0
0
0
0
0
0
0
0
0
0
0
0
0
0
0
0
0
0
0
0
0
0
0
0
0
0
0
0
0
0
0
0
0
0
0
0
0
0
0
0
0
0
0
0
0
0
0
0
0
0
0
0
0
0
0
0
0
0
0
0
0
0
0
0
0
0
0
0
0
0
0
0
0
0
0
0
0
0
0
0
0
0
0
0
0
0
0
0
0
0
0
0
0
0
0
0
0
0
0
0
0
0
0
0
0
0
0
0
0
0
0
0
0
0
0
0
0
0
0
0
0
0
0
0
0
0
0
0
0
0
0
0
0
0
0
0
0
0
0
0
0
0
0
0
0
0
0
0
0
0
0
0
0
0
0
0
0
0
0
0
0
0
0
0
0
0
0
0
0
0
0
0
0
0
0
0
0
0
0
0
0
0
0
0
0
0
0
0
0
0
0
0
0
0
0
0
0
0
0
0
0
0
0
0
0
0
0
0
0
0
0
0
0
0
0
0
0
0
0
0
0
0
0
0
0
0
0
0
0
0
0
0
SCALARS damp_numerical double 1
LOOKUP_TABLE default
0.5
0.5
0.5
0.5
0.5
0.5
0.5
0.5
0.5
0.5
0.5
0.5
0.5
0.5
0.5
0.5
0.5
0.5
0.5
0.5
0.5
0.5
0.5
0.5
0.5
0.5
0.5
0.5
0.5
0.5
0.5
0.5
0.5
0.5
0.5
0.5
0.5
0.5
0.5
0.5
0.5
0.5
0.5
0.5
0.5
0.5
0.5
0.5
0.5
0.5
0.5
0.5
0.5
0.5
0.5
0.5
0.5
0.5
0.5
0.5
0.5
0.5
0.5
0.5
0.5
0.5
0.5
0.5
0.5
0.5
0.5
0.5
0.5
0.5
0.5
0.5
0.5
0.5
0.5
0.5
0.5
0.5
0.5
0.5
0.5
0.5
0.5
0.5
0.5
0.5
0.5
0.5
0.5
0.5
0.5
0.5
0.5
0.5
0.5
0.5
0.5
0.5
0.5
0.5
0.5
0.5
0.5
0.5
0.5
0.5
0.5
0.5
0.5
0.5
0.5
0.5
0.5
0.5
0.5
0.5
0.5
0.5
0.5
0.5
0.5
0.5
0.5
0.5
0.5
0.5
0.5
0.5
0.5
0.5
0.5
0.5
0.5
0.5
0.5
0.5
0.5
0.5
0.5
0.5
0.5
0.5
0.5
0.5
0.5
0.5
0.5
0.5
0.5
0.5
0.5
0.5
0.5
0.5
0.5
0.5
0.5
0.5
0.5
0.5
0.5
0.5
0.5
0.5
0.5
0.5
0.5
0.5
0.5
0.5
0.5
0.5
0.5
0.5
0.5
0.5
0.5
0.5
0.5
0.5
0.5
0.5
0.5
0.5
0.5
0.5
0.5
0.5
0.5
0.5
0.5
0.5
0.5
0.5
0.5
0.5
0.5
0.5
0.5
0.5
0.5
0.5
0.5
0.5
0.5
0.5
0.5
0.5
0.5
0.5
0.5
0.5
0.5
0.5
0.5
0.5
0.5
0.5
0.5
0.5
0.5
0.5
0.5
0.5
0.5
0.5
0.5
0.5
0.5
0.5
0.5
0.5
0.5
0.5
0.5
0.5
0.5
0.5
0.5
0.5
0.5
0.5
0.5
0.5
0.5
0.5
SCALARS quat double 4
LOOKUP_TABLE default
0.979913 0.0854896 -0.019491 0.179117 
0.422936 0.19358 0.881935 0.076436 
0.995299 0.0615392 -0.0747803 -0.000428419 
0.941658 0.134142 0.00553611 0.308634 
0.218235 0.323535 0.831742 0.394847 
0.805636 -0.212776 -0.17169 0.525547 
0.259029 0.245797 0.696789 0.622072 
0.947128 0.0660144 0.273627 0.154011 
0.0681821 0.88198 0.455767 0.0986825 
0.279635 0.131632 0.0594375 0.949181 
0.930066 0.0435988 0.13936 0.337128 
0.895604 0.01201 0.325206 0.3033 
0.115508 0.577388 0.641376 0.491851 
0.590176 0.721944 0.357748 -0.0500473 
0.798812 0.140583 -0.0328062 0.584002 
0.994979 0.0490487 -0.0872211 -0.00180983 
0.659913 0.137538 0.00379724 0.738637 
0.975866 0.0846328 -0.0126512 0.200905 
0.965438 0.132498 -0.103386 0.19921 
0.872998 0.106465 0.203002 0.430499 
1 0.000646178 0.000193913 0.000461524 
0.464545 0.197074 0.639242 0.580284 
0.80546 0.16019 0.208233 0.531236 
0.973067 0.0554567 0.156413 0.16 
0.991043 0.0802061 -0.100619 0.0357343 
0.981371 0.109414 -0.0562158 0.147579 
0.422936 0.19358 0.881935 0.076436 
0.986042 0.0156295 -0.15114 0.0680649 
0.933792 0.138233 0.0250548 0.329085 
0.218235 0.323535 0.831742 0.394847 
0.802094 0.186545 0.534135 0.191169 
0.259029 0.245797 0.696789 0.622072 
0.947128 0.0660144 0.273627 0.154011 
0.31563 0.154463 0.0703695 0.933578 
0.340556 0.791119 0.362739 -0.355772 
0.809325 0.108638 0.0846648 0.570984 
0.895604 0.01201 0.325206 0.3033 
0.115508 0.577388 0.641376 0.491851 
0.743821 -0.527591 -0.410314 0.00456281 
0.206165 0.893496 0.379129 -0.124186 
0.959446 0.0729993 -0.193037 0.192019 
0.750295 0.24017 0.0250948 0.615424 
0.979431 0.0802672 0.0597534 0.175217 
0.071262 0.813818 0.561478 -0.131773 
0.872998 0.106465 0.203002 0.430499 
1 0.000646178 0.000193913 0.000461524 
0.464545 0.197074 0.639242 0.580284 
0.80546 0.16019 0.208233 0.531236 
0.973067 0.0554567 0.156413 0.16 
-0.616158 0.709669 0.3183 0.124113 
0.964262 0.153253 -0.172888 0.129701 
0.422936 0.19358 0.881935 0.076436 
0.982891 0.0468216 -0.156163 0.0857143 
0.933924 0.135372 0.0154011 0.330488 
0.218235 0.323535 0.831742 0.394847 
-0.601817 0.262101 0.65756 -0.369775 
0.259029 0.245797 0.696789 0.622072 
0.947128 0.0660144 0.273627 0.154011 
-0.371248 0.527678 0.148728 -0.749407 
0.2294 -0.49225 -0.176142 0.820999 
0.524699 0.546531 0.636912 0.142614 
0.895604 0.01201 0.325206 0.3033 
0.115508 0.577388 0.641376 0.491851 
-0.333318 0.632329 0.681846 0.155388 
0.843168 0.0681634 0.0531143 0.53066 
0.94337 0.117271 -0.299619 0.0808005 
0.623318 0.285854 -0.0308682 0.727192 
0.993168 0.0557166 0.0300141 0.0980443 
0.892916 -0.302774 0.333205 0.00192517 
0.872998 0.106465 0.203002 0.430499 
1 0.000646178 0.000193913 0.000461524 
0.464545 0.197074 0.639242 0.580284 
0.80546 0.16019 0.208233 0.531236 
0.973067 0.0554567 0.156413 0.16 
0.896125 -0.423949 0.013813 -0.130521 
0.953405 0.161232 -0.245111 0.0703093 
0.422936 0.19358 0.881935 0.076436 
0.950744 0.0946312 -0.29219 0.0418977 
0.933889 0.135091 0.0131337 0.3308 
0.218235 0.323535 0.831742 0.394847 
0.966983 -0.237743 -0.0847173 0.0352927 
0.259029 0.245797 0.696789 0.622072 
0.947128 0.0660144 0.273627 0.154011 
0.128786 0.577068 0.0568932 0.804469 
-0.218567 0.824631 0.37577 0.361952 
0.913736 0.0110499 0.18216 0.363018 
0.895604 0.01201 0.325206 0.3033 
0.115508 0.577388 0.641376 0.491851 
0.904927 0.341298 0.238685 -0.087475 
0.534332 -0.494525 -0.153311 0.668155 
0.980591 0.194661 0.0089125 -0.0216529 
0.521141 0.687589 -0.0865629 0.498138 
0.972807 0.0709005 -0.00254535 0.220485 
0.897051 -0.328593 -0.244136 0.166506 
0.872998 0.106465 0.203002 0.430499 
1 0.000646178 0.000193913 0.000461524 
0.464545 0.197074 0.639242 0.580284 
0.80546 0.16019 0.208233 0.531236 
0.973067 0.0554567 0.156413 0.16 
0.720701 0.586922 0.355757 -0.0977196 
0.973058 0.144462 -0.134243 0.119448 
0.422936 0.19358 0.881935 0.076436 
0.943023 0.12882 -0.306167 -0.0193634 
0.933886 0.136029 0.0170367 0.330247 
0.218235 0.323535 0.831742 0.394847 
0.957815 -0.172981 -0.0184842 0.228749 
0.259029 0.245797 0.696789 0.622072 
0.947128 0.0660144 0.273627 0.154011 
0.330953 0.702762 0.401699 0.485009 
0.304132 -0.0130167 -0.332028 0.8928 
0.923574 0.20137 -0.0697135 0.318749 
0.895604 0.01201 0.325206 0.3033 
0.115508 0.577388 0.641376 0.491851 
0.961793 0.2327 0.0576636 -0.132211 
0.440466 0.667523 0.00855431 0.600275 
0.974258 0.190379 -0.120631 -0.00499732 
0.707241 0.352485 -0.139201 0.596815 
0.950714 0.109638 -0.0568937 0.284405 
0.726096 0.515682 0.330919 0.312008 
0.872998 0.106465 0.203002 0.430499 
1 0.000646178 0.000193913 0.000461524 
0.464545 0.197074 0.639242 0.580284 
0.80546 0.16019 0.208233 0.531236 
0.973067 0.0554567 0.156413 0.16 
0.929245 -0.3672 0.0389019 0.0124623 
0.966945 0.152176 -0.162676 0.124085 
0.422936 0.19358 0.881935 0.076436 
0.935643 0.123635 -0.326078 0.0544081 
0.933904 0.135589 0.0156835 0.330443 
0.218235 0.323535 0.831742 0.394847 
0.404749 0.209058 0.873017 0.174111 
0.259029 0.245797 0.696789 0.622072 
0.947128 0.0660144 0.273627 0.154011 
-0.00267642 0.913582 0.385828 0.128441 
0.0888351 0.764529 0.638434 -0.00241511 
0.893746 0.242072 0.0188655 0.377178 
0.895604 0.01201 0.325206 0.3033 
0.115508 0.577388 0.641376 0.491851 
0.0576825 0.845465 0.521787 0.0979806 
0.829762 0.471151 0.0714924 0.290516 
0.954518 0.173077 -0.239931 0.0370489 
0.777922 0.144453 0.0485726 0.609599 
0.9648 0.11181 -0.0450158 0.233736 
0.919351 0.179587 0.162028 0.310304 
0.872998 0.106465 0.203002 0.430499 
1 0.000646178 0.000193913 0.000461524 
0.464545 0.197074 0.639242 0.580284 
0.80546 0.16019 0.208233 0.531236 
0.973067 0.0554567 0.156413 0.16 
0.065712 0.926507 0.350279 0.120711 
0.967696 0.161648 -0.141842 0.131589 
0.422936 0.19358 0.881935 0.076436 
0.987947 0.148391 -0.0435928 0.00641865 
0.933894 0.135678 0.0157493 0.330431 
0.218235 0.323535 0.831742 0.394847 
0.901809 -0.163808 0.220075 0.333877 
0.259029 0.245797 0.696789 0.622072 
0.947128 0.0660144 0.273627 0.154011 
-0.0716859 0.804812 0.339849 0.481292 
0.254137 -0.142683 -0.124404 0.948462 
0.842768 0.363911 0.272105 0.288564 
0.895604 0.01201 0.325206 0.3033 
0.115508 0.577388 0.641376 0.491851 
0.955858 -0.114157 0.253652 -0.0946808 
0.87183 0.247337 0.0628701 0.418072 
0.915405 0.17351 -0.353744 0.0824168 
0.671011 0.41428 -0.0608083 0.611898 
0.972744 0.0955479 -0.0060027 0.211195 
0.714654 0.613082 0.0974245 0.322348 
0.872998 0.106465 0.203002 0.430499 
1 0.000646178 0.000193913 0.000461524 
0.464545 0.197074 0.639242 0.580284 
0.80546 0.16019 0.208233 0.531236 
0.973067 0.0554567 0.156413 0.16 
0.984705 -0.135068 0.108329 -0.0194156 
0.976628 0.149465 -0.114075 0.104136 
0.422936 0.19358 0.881935 0.076436 
0.983428 0.13888 -0.111443 0.034084 
0.933896 0.135693 0.0158777 0.330413 
0.218235 0.323535 0.831742 0.394847 
0.765624 0.0253539 0.585422 0.265438 
0.259029 0.245797 0.696789 0.622072 
0.947128 0.0660144 0.273627 0.154011 
-0.108401 0.841587 0.352298 0.394798 
0.0579101 0.658102 0.504582 0.555828 
0.89532 0.226127 0.289984 0.251354 
0.895604 0.01201 0.325206 0.3033 
0.115508 0.577388 0.641376 0.491851 
0.654623 0.67508 0.340032 -0.0106798 
0.783823 0.385529 -0.093137 0.477823 
0.993651 0.102013 0.0450452 0.0149227 
0.66032 0.370599 -0.0555008 0.65081 
0.97576 0.0849903 0.0204862 0.200622 
0.94873 0.154841 0.120709 0.247721 
0.872998 0.106465 0.203002 0.430499 
1 0.000646178 0.000193913 0.000461524 
0.464545 0.197074 0.639242 0.580284 
0.80546 0.16019 0.208233 0.531236 
0.973067 0.0554567 0.156413 0.16 
0.694006 0.664804 0.275203 -0.0255916 
0.972865 0.181855 -0.110741 0.0905486 
0.422936 0.19358 0.881935 0.076436 
0.969089 0.142283 -0.201303 0.00995763 
0.933897 0.13568 0.015827 0.33042 
0.218235 0.323535 0.831742 0.394847 
0.818864 0.00497948 0.495115 0.290341 
0.259029 0.245797 0.696789 0.622072 
0.947128 0.0660144 0.273627 0.154011 
0.117012 0.808744 0.430434 0.383365 
0.248709 0.417672 0.333377 0.807808 
0.872039 0.333067 0.248051 0.259008 
0.895604 0.01201 0.325206 0.3033 
0.115508 0.577388 0.641376 0.491851 
0.812911 0.492637 0.309518 0.0261304 
0.824727 0.38925 0.167242 0.374619 
0.975461 0.110184 -0.188126 0.0307262 
0.693181 0.274723 -0.140425 0.65139 
0.974663 0.0201828 0.0772332 0.208947 
0.894099 0.242412 0.307197 0.217838 
0.872998 0.106465 0.203002 0.430499 
1 0.000646178 0.000193913 0.000461524 
0.464545 0.197074 0.639242 0.580284 
0.80546 0.16019 0.208233 0.531236 
0.973067 0.0554567 0.156413 0.16 
0.865554 0.457744 0.202599 0.0154858 
0.987695 0.113077 0.0865597 0.064658 
0.422936 0.19358 0.881935 0.076436 
0.999938 0.00834925 0.00519597 0.00514693 
0.933896 0.135683 0.015835 0.330419 
0.218235 0.323535 0.831742 0.394847 
0.822268 0.00687642 0.488428 0.292003 
0.259029 0.245797 0.696789 0.622072 
0.947128 0.0660144 0.273627 0.154011 
0.114949 0.809678 0.432343 0.379853 
0.241786 0.448885 0.409847 0.756351 
0.907485 0.19221 0.316201 0.198854 
0.895604 0.01201 0.325206 0.3033 
0.115508 0.577388 0.641376 0.491851 
0.835101 0.483927 0.255872 0.054317 
0.824488 0.388943 0.180706 0.369174 
0.997984 0.0571643 0.0186911 0.0202818 
0.733928 0.293165 0.134605 0.597734 
0.94956 0.0531351 0.230499 0.205872 
0.894099 0.242412 0.307197 0.217838 
0.872998 0.106465 0.203002 0.430499 
1 0.000646178 0.000193913 0.000461524 
0.464545 0.197074 0.639242 0.580284 
0.80546 0.16019 0.208233 0.531236 
0.973067 0.0554567 0.156413 0.16 
0.85666 0.475253 0.200024 0.0160836 
VECTORS vel double
-0.00790649 -0.00121483 -0.0123529 
0 0 0.000300202 
-0.00029622 -0.000729289 0.00940117 
-0.0182786 -0.00141707 0.00219369 
0 0 0.000157788 
-0.00492575 0.0434932 0.00992898 
0 0 0.000293528 
0 0 0.000190938 
0.00469076 0.0509935 0.0059691 
-0.000693967 -0.00046087 -7.84694e-05 
-0.128705 0.105482 -0.0600183 
0 0 0.000302421 
0 0 0.000248319 
-0.0180929 0.138421 -0.0435164 
-0.0134564 0.00461326 -0.00396106 
0.000797499 -0.00520347 0.00125001 
-0.00457578 -0.0113666 -0.00713358 
0.00826387 0.00311641 0.011285 
0.0205547 0.0458994 -0.0234571 
0 0 0.000240601 
0 0 0.000230359 
0 0 0.000192097 
0 0 0.000291169 
0 0 0.000298429 
-0.00711702 -0.112679 -0.0173964 
-0.0630573 -0.00858738 -0.0389475 
0 0 -0.317884 
0.0028187 0.00122763 0.0214142 
-0.0131281 -0.00128357 -0.306334 
0 0 -0.314866 
-0.0534998 0.0123744 -0.0576719 
0 0 -0.319301 
0 0 -0.317998 
-0.0489575 -0.141313 -0.168884 
-0.0293142 0.0935628 -0.0164715 
-0.15165 0.0745248 -0.111312 
0 0 -0.319829 
0 0 -0.318128 
0.00805378 0.185612 -0.0910827 
0.222943 -0.159261 -0.310622 
0.00181173 -0.014722 0.00374073 
-0.0591905 0.0480428 0.0416578 
0.0182728 0.00556143 0.00498056 
-0.0403747 -0.26592 -0.451177 
0 0 -0.31586 
0 0 -0.317425 
0 0 -0.319709 
0 0 -0.319233 
0 0 -0.318892 
0.109083 -0.0885632 0.0586487 
-0.0667446 -0.00218876 0.0348509 
0 0 -0.309642 
0.00875571 0.00619853 0.0302709 
0.0156787 0.00147311 -0.298906 
0 0 -0.306718 
0.0283192 0.214937 -0.150132 
0 0 -0.31103 
0 0 -0.309913 
0.102171 0.0233947 0.00635859 
0.000861731 0.218756 -0.0989955 
0.0837396 -0.10028 -0.301641 
0 0 -0.311551 
0 0 -0.309919 
-0.0165971 0.199332 -0.0268514 
0.429939 -0.154408 -0.633346 
0.00758468 -0.0196586 0.0114086 
-0.132487 0.0322657 -0.00293551 
0.0253128 0.00398569 0.0120538 
0.316122 -0.330076 -0.783728 
0 0 -0.307665 
0 0 -0.309195 
0 0 -0.311439 
0 0 -0.310962 
0 0 -0.310631 
0.135086 -0.401883 -0.159247 
0.0121069 0.000339881 -0.0191467 
0 0 -0.293006 
0.0186488 0.0156116 0.0394516 
0.00342792 0.000702596 -0.283281 
0 0 -0.290171 
-0.0811847 0.00385255 -0.099946 
0 0 -0.294336 
0 0 -0.29346 
0.223212 -0.0402764 -0.177738 
-0.0401526 0.217304 -0.0891022 
0.25493 -0.149576 -0.339189 
0 0 -0.294852 
0 0 -0.293306 
0.0165923 -0.0962645 -0.363119 
0.113237 0.0393453 -1.0601 
0.0231094 0.0165175 0.0122596 
-0.0136077 -0.100269 -0.0540491 
0.0171486 -0.00845709 0.00878585 
0.109179 -0.0615616 -0.0437113 
0 0 -0.291131 
0 0 -0.292587 
0 0 -0.294653 
0 0 -0.294265 
0 0 -0.293958 
0.00982394 -0.213703 -0.701616 
-0.00611732 -0.00441866 0.0067672 
0 0 -0.267615 
0.039955 0.0233246 0.0465523 
-0.00445124 -0.000585297 -0.259121 
0 0 -0.264765 
-0.128747 0.0349356 -0.241416 
0 0 -0.268854 
0 0 -0.268076 
0.107358 -0.0599214 -0.283447 
-0.180659 -0.0917485 -0.271597 
0.149041 0.0402813 -0.487665 
0 0 -0.269375 
0 0 -0.267911 
-0.0896544 0.0740326 -0.632721 
-0.0937383 0.0938671 -1.13162 
0.016662 0.069308 -0.000780781 
0.0680852 -0.165207 -0.097947 
-0.0105306 -0.0109406 0.0165432 
0.0663868 -7.06889e-05 -0.107844 
0 0 -0.265907 
0 0 -0.267245 
0 0 -0.26891 
0 0 -0.268778 
0 0 -0.268513 
-0.0411697 0.189835 -0.865355 
0.0166168 0.00334265 0.00126075 
0 0 -0.233243 
0.00754733 -0.017344 -0.0327109 
0.00137921 -1.79573e-05 -0.226116 
0 0 -0.230332 
0.296041 -0.0194712 -0.110176 
0 0 -0.234354 
0 0 -0.233453 
-0.191996 -0.0779508 -0.25974 
0.0807324 -0.0174546 -0.421133 
-0.00402601 0.0682416 -0.525289 
0 0 -0.23488 
0 0 -0.233605 
-0.00462328 -0.0160283 -0.695501 
0.000662756 -0.0172963 -1.19954 
-0.0229395 0.0353018 0.00455441 
0.00809043 -0.0781603 -0.120042 
0.00346882 0.0501956 0.0712155 
-0.00967505 0.371413 -0.0614865 
0 0 -0.231772 
0 0 -0.232942 
0 0 -0.234054 
0 0 -0.234269 
0 0 -0.234063 
0.0207301 0.00655171 -0.891297 
-0.0694053 -0.0235625 -0.0515139 
0 0 -0.190806 
-0.11532 -0.0995547 -0.0150232 
0.000329187 0.000116534 -0.185151 
0 0 -0.187988 
0.230329 -0.001108 -0.159811 
0 0 -0.191742 
0 0 -0.190644 
-0.0540666 0.0653485 -0.265165 
-0.0299887 0.00859392 -0.421953 
-0.0416649 -0.00600063 -0.501016 
0 0 -0.192249 
0 0 -0.191396 
0.0528952 -0.0706139 -0.916646 
-0.01695 -0.0222375 -1.27616 
-0.030452 -0.0721801 -0.0161613 
-0.0572427 0.0196802 -0.118295 
-0.0765461 0.0402594 -0.0169699 
0.129329 0.0373646 -0.0920102 
0 0 -0.189626 
0 0 -0.190583 
0 0 -0.191195 
0 0 -0.191653 
0 0 -0.191512 
0.0109348 -0.0875762 -0.924792 
0.0487961 0.00672643 0.157325 
0 0 -0.143062 
0.0739894 0.0794934 0.107385 
-0.000268284 -2.98603e-05 -0.138946 
0 0 -0.140653 
-0.15015 0.0234766 -0.345238 
0 0 -0.143782 
0 0 -0.142648 
0.0150028 0.0914139 -0.2958 
0.00529133 0.0367992 -0.515418 
0.0141976 0.0497947 -0.407915 
0 0 -0.144219 
0 0 -0.143941 
-0.0847564 0.0704499 -0.924525 
0.0418386 0.0437079 -1.31135 
0.154335 0.00601881 0.00463306 
0.0470075 0.0824009 -0.11536 
0.0931498 -0.00725109 0.251434 
-0.137355 -0.108888 -0.152567 
0 0 -0.142198 
0 0 -0.142913 
0 0 -0.143222 
0 0 -0.143701 
0 0 -0.143617 
-0.0639439 0.07599 -0.897269 
-0.092593 -0.013196 -0.285799 
0 0 -0.0937489 
-0.0684858 -0.00887116 -0.113187 
5.74988e-05 -4.0083e-06 -0.0911305 
0 0 -0.0920466 
0.0689564 -0.0109043 -0.360074 
0 0 -0.0942278 
0 0 -0.09333 
0.0305685 -0.0946964 -0.145974 
0.023539 -0.0100726 -0.655421 
-0.0288053 -0.0386745 -0.378441 
0 0 -0.0945436 
0 0 -0.0947142 
0.0292356 -0.0142573 -0.960909 
-0.00443581 -0.000585743 -1.49229 
-0.0840894 -0.00439729 0.0162321 
-0.0286017 -0.0490435 -0.0647012 
-0.113255 -0.0694181 -0.228099 
0 0 -2.6379 
0 0 -0.0931953 
0 0 -0.0936607 
0 0 -0.0938439 
0 0 -0.0941681 
0 0 -0.0941241 
0.0312988 -0.0158411 -0.883311 
0 0 -2.1474 
0 0 -0.0455492 
0 0 -2.1474 
1.44104e-05 6.75294e-06 -0.0442938 
0 0 -0.0447113 
0 0 -2.1474 
0 0 -0.0457827 
0 0 -0.0453288 
0 0 -2.1474 
0 0 -2.1474 
0 0 -2.1474 
0 0 -0.0459443 
0 0 -0.0462232 
0 0 -2.1474 
0 0 -2.1474 
0 0 -2.1474 
0 0 -2.1474 
0 0 -2.1474 
0 0 -2.1474 
0 0 -0.0452856 
0 0 -0.0455096 
0 0 -0.0456264 
0 0 -0.0457517 
0 0 -0.0457339 
0 0 -2.1474 
VECTORS spin double
0.151678 -0.017805 -0.0202917 
0 0 0 
-0.0186418 -0.0137541 -0.00535799 
0.0283505 -0.365667 -0.988131 
0 0 0 
-0.980066 0.0218516 -0.543777 
0 0 0 
0 0 0 
-1.3979 0.20914 -0.427438 
-0.0331994 0.0197284 0.0188291 
-2.96873 -3.27179 1.32569 
0 0 0 
0 0 0 
-2.68993 -1.09358 -2.40004 
-0.0931544 -0.230526 -0.134804 
0.197539 0.0320189 -0.03274 
0.330261 0.0103901 0.0431259 
-0.114528 0.23924 0.0136353 
-0.752008 0.559044 0.405575 
0 0 0 
0 0 0 
0 0 0 
0 0 0 
0 0 0 
3.17291 -0.212922 0.0868785 
0.299141 -1.47655 -0.516057 
0 0 0 
-0.146691 0.0732013 -0.0131382 
-0.0391412 0.544745 -3.66335e-05 
0 0 0 
3.72408 -1.50745 -2.22897 
0 0 0 
0 0 0 
4.30266 -0.266474 -1.0268 
-2.14957 -0.436192 1.4992 
2.10723 1.83025 4.62214 
0 0 0 
0 0 0 
-2.42424 0.607822 1.01702 
3.3665 7.64931 -1.23212 
0.127727 -0.0194594 -0.163422 
-2.16187 -1.43728 -0.00141958 
0.00740928 0.070183 0.00370025 
0.595644 11.0884 0.489318 
0 0 0 
0 0 0 
0 0 0 
0 0 0 
0 0 0 
1.7772 1.19706 -0.0317144 
-0.608632 2.15661 -0.670845 
0 0 0 
0.102224 0.0749356 0.0293811 
-0.0159657 0.0312604 4.62353e-05 
0 0 0 
-4.36545 1.7725 2.27527 
0 0 0 
0 0 0 
1.66653 1.81573 -0.554974 
-3.15388 2.34207 -0.135778 
5.27913 3.42592 -0.658367 
0 0 0 
0 0 0 
1.10497 -1.17457 1.42644 
-2.26473 0.70463 1.60481 
0.231592 0.127025 -0.468023 
3.09471 -0.142868 -0.196874 
0.0242872 0.104111 0.0593753 
-2.2431 1.66636 -1.65994 
0 0 0 
0 0 0 
0 0 0 
0 0 0 
0 0 0 
4.70656 1.14756 -2.21239 
0.442793 -0.644025 0.00894445 
0 0 0 
-0.176356 0.0871214 -0.00146529 
0.0313476 -0.276203 1.95147e-05 
0 0 0 
9.70867 -4.68775 -2.60796 
0 0 0 
0 0 0 
1.00377 2.95357 0.88452 
4.03995 -4.08336 0.363407 
-3.99308 0.614917 1.83598 
0 0 0 
0 0 0 
11.0334 1.25274 -1.6299 
-4.96054 -4.21691 2.12639 
-1.65558 0.258391 0.0112892 
0.791435 2.235 -0.697272 
0.499358 -0.388605 -0.162506 
3.94424 1.41462 1.57135 
0 0 0 
0 0 0 
0 0 0 
0 0 0 
0 0 0 
-2.57903 -1.04663 0.708291 
-0.473238 0.425579 -0.112269 
0 0 0 
-0.0481012 0.349497 0.0533129 
-0.00562271 0.119076 1.58641e-05 
0 0 0 
-5.01721 1.7609 1.3319 
0 0 0 
0 0 0 
0.619836 -6.97101 -2.42257 
4.59282 0.917289 1.3006 
-1.28243 -2.54485 0.45067 
0 0 0 
0 0 0 
-6.85102 -2.54378 -1.86692 
2.01222 1.46636 2.8599 
0.31405 -0.538959 0.132162 
0.409908 -0.182882 -1.13529 
-0.387252 -0.484492 -0.30973 
-5.86401 -2.12889 1.25828 
0 0 0 
0 0 0 
0 0 0 
0 0 0 
0 0 0 
-9.43502 0.605897 -0.482336 