# vtk DataFile Version 2.0
Generated by NetDEM
ASCII 
DATASET POLYDATA
POINTS 500 double
-0.421627 -0.393314 -0.462318 
-0.449999 -0.189728 -0.450032 
-0.405185 -0.0122786 -0.462894 
-0.44987 0.107509 -0.450021 
-0.450038 0.349918 -0.450056 
-0.292901 -0.437563 -0.459145 
-0.354999 -0.226118 -0.450011 
-0.188123 -0.00525601 -0.450036 
-0.173237 0.178876 -0.463986 
-0.256034 0.369389 -0.464455 
-0.0458488 -0.403358 -0.464027 
-0.151889 -0.129999 -0.450015 
-0.050887 -0.0920254 -0.450097 
0.0393368 0.180739 -0.453072 
-0.027421 0.320291 -0.44396 
0.192143 -0.408196 -0.464044 
0.165868 -0.208401 -0.463311 
0.171465 -0.00187381 -0.462997 
0.162141 0.204023 -0.463963 
0.293706 0.407745 -0.420701 
0.448077 -0.412391 -0.450023 
0.435118 -0.293002 -0.450013 
0.343127 -0.012225 -0.450026 
0.373927 0.0865957 -0.450028 
0.372525 0.44117 -0.464829 
-0.439407 -0.400465 -0.393582 
-0.449997 -0.278589 -0.404189 
-0.408533 -0.0118562 -0.391303 
-0.441987 0.178621 -0.380165 
-0.449478 0.450013 -0.450023 
-0.3505 -0.3912 -0.395515 
-0.269278 -0.101394 -0.450007 
-0.165415 -0.102517 -0.226197 
-0.304611 0.165973 -0.465054 
-0.154015 0.406589 -0.452896 
-0.0993174 -0.362576 -0.407905 
0.297118 -0.251387 -0.151177 
-0.0522175 -0.0153403 -0.316273 
0.03229 0.261043 -0.452362 
0.128892 0.304041 -0.44525 
0.194948 -0.42377 -0.392367 
0.16771 -0.212024 -0.391678 
0.177299 0.0272316 -0.387543 
0.19538 0.114206 -0.45442 
0.287733 0.365157 -0.330439 
0.373448 -0.450007 -0.395133 
0.43634 -0.353272 -0.370231 
0.268996 -0.212403 -0.450026 
0.449682 0.152553 -0.450007 
0.42568 0.3409 -0.456586 
-0.43704 -0.440342 -0.33086 
-0.277084 -0.207882 -0.390045 
-0.298818 -0.000480405 -0.438903 
-0.285783 0.276192 -0.450022 
-0.449401 0.279775 -0.37877 
-0.198965 -0.378691 -0.453082 
0.197908 -0.354349 -0.310005 
-0.246285 -0.0442951 -0.214644 
-0.169965 0.0801092 -0.451645 
-0.34895 0.334115 -0.344594 
0.0498523 -0.439329 -0.450961 
0.206456 -0.275627 -0.196128 
0.203051 0.0534464 -0.225852 
-0.0380206 0.225745 -0.396864 
0.2534 0.333656 -0.463448 
0.183418 -0.449251 -0.323505 
0.055389 -0.100854 -0.451593 
0.159589 0.0687614 -0.329401 
0.267838 0.0666152 -0.442304 
0.115641 0.133348 -0.390676 
0.286368 -0.45 -0.450007 
0.372777 -0.209224 -0.450072 
0.375836 -0.108744 -0.450062 
0.449555 0.217808 -0.369349 
0.436239 0.254224 -0.460542 
-0.429373 -0.452584 -0.246088 
-0.19642 -0.154827 -0.364009 
-0.240892 0.00458248 -0.356469 
-0.263664 0.0932779 -0.410577 
-0.345772 0.143265 -0.37004 
-0.172315 -0.446849 -0.412793 
-0.122894 -0.0539436 -0.391937 
-0.222695 0.0491284 -0.245131 
-0.0559968 0.131456 -0.448991 
-0.365957 0.381179 -0.414833 
0.0742379 -0.460001 -0.352278 
0.445309 -0.344635 -0.108865 
-0.199086 -0.225755 -0.450015 
0.0150747 0.0477722 -0.450596 
0.0705284 0.398004 -0.414775 
0.255072 -0.443937 -0.254937 
0.147713 -0.327383 -0.40112 
0.112279 0.0763409 -0.273399 
0.266578 0.1722 -0.434525 
0.140198 0.450012 -0.450026 
0.350611 -0.309241 -0.399079 
0.449963 -0.104747 -0.383073 
0.385936 0.142191 -0.35318 
0.330887 0.314451 -0.409945 
0.43801 0.370756 -0.378466 
-0.381969 -0.439294 -0.175427 
-0.364385 -0.349601 -0.143672 
-0.295549 -0.0426752 -0.294677 
-0.357073 0.0718824 -0.439161 
-0.449975 0.436298 -0.350983 
-0.292395 -0.428683 -0.356279 
-0.0760133 -0.142715 -0.367612 
-0.24116 0.0339253 -0.148046 
-0.00100007 -0.0279748 -0.38868 
-0.432056 0.251266 -0.458598 
0.0749716 -0.348777 -0.441103 
0.357198 -0.203649 -0.0869629 
0.0560031 -0.122297 -0.362594 
0.02887 0.0432626 -0.360222 
-0.00497228 0.432414 -0.462719 
0.29572 -0.387901 -0.231147 
0.256417 -0.31197 -0.446333 
0.0292835 0.0687305 -0.269862 
0.255299 0.24705 -0.386894 
0.34409 0.44999 -0.280759 
0.296947 -0.39199 -0.36719 
0.450079 -0.212611 -0.386817 
0.449896 -0.0304922 -0.45007 
0.349078 0.216109 -0.410206 
0.402117 0.452088 -0.375725 
-0.461227 -0.451553 -0.137322 
-0.32033 -0.141617 -0.325324 
-0.450988 -0.0272425 -0.322576 
-0.253797 0.198229 -0.39618 
-0.302108 0.450002 -0.389095 
-0.169603 -0.387039 -0.349382 
-0.0799437 -0.199463 -0.450015 
-0.205611 -0.166009 -0.160224 
-0.136986 0.15095 -0.402152 
-0.22632 0.340881 -0.395594 
-0.0460251 -0.282964 -0.451199 
0.273802 -0.323947 -0.0862801 
0.450007 0.0533835 -0.177477 
0.0315938 0.12737 -0.337283 
-0.117977 0.312651 -0.414692 
0.132937 -0.451278 -0.262121 
0.239622 -0.14201 -0.404313 
0.0976484 -0.023608 -0.241745 
0.195659 0.306901 -0.344106 
0.198429 0.387286 -0.398384 
0.450003 -0.444281 -0.331065 
0.326773 -0.171029 -0.369942 
0.2544 -0.0583976 -0.450044 
0.450009 0.0539789 -0.393944 
0.440511 0.409764 -0.302164 
-0.432034 -0.458113 -0.0261618 
-0.237683 -0.175892 -0.275395 
-0.423249 -0.104801 -0.411485 
-0.209107 0.269397 -0.34199 
-0.35862 0.239992 -0.391861 
-0.170067 -0.288856 -0.370508 
0.142272 -0.449998 -0.119564 
-0.302584 0.36955 -0.199881 
-0.106953 0.274599 -0.334289 
-0.223132 0.462957 -0.451423 
0.00604342 -0.314973 -0.360287 
0.113404 -0.242842 -0.166707 
-0.187693 -0.0667746 -0.316871 
0.013712 0.203652 -0.308206 
0.0196834 0.299176 -0.356176 
0.0489594 -0.417951 -0.278322 
0.142683 -0.102689 -0.404198 
0.252535 -0.114909 -0.269294 
0.246897 0.190017 -0.319542 
0.13694 0.449427 -0.349818 
0.384451 -0.23021 -0.313563 
0.350262 -0.06365 -0.364568 
0.320891 0.0489002 -0.374102 
0.417888 0.299173 -0.310236 
0.446824 0.379879 -0.218395 
-0.30012 -0.436177 -0.128473 
-0.449953 -0.10284 -0.272459 
-0.358688 0.00946429 -0.282142 
-0.450001 0.0729272 -0.356176 
-0.414396 0.265757 -0.286247 
-0.281532 -0.300573 -0.448081 
-0.182752 -0.266184 -0.253709 
-0.141904 0.398546 -0.0941493 
-0.122101 0.189247 -0.3375 
-0.131787 0.440827 -0.35966 
-0.00693652 -0.421324 -0.366285 
0.0164842 -0.0878636 -0.27745 
0.0395969 -0.207712 -0.450007 
-0.02246 0.273946 -0.260767 
-0.00193148 0.401907 -0.371858 
0.0606124 -0.440491 -0.177701 
0.104979 -0.0437683 -0.350955 
0.284575 -0.158968 -0.199219 
0.199704 0.136916 -0.27779 
0.245221 0.449994 -0.298891 
0.44994 -0.305759 -0.283243 
0.450054 -0.150831 -0.294431 
0.365957 0.0377034 -0.28555 
0.325865 0.262268 -0.323272 
0.384287 0.429426 -0.207411 
-0.250594 -0.445373 -0.199553 
-0.433861 0.224033 -0.19755 
-0.289679 0.18591 -0.203758 
-0.149607 0.0580457 -0.352215 
-0.360701 0.449985 -0.308062 
-0.220515 -0.341678 -0.272714 
-0.0349167 -0.232251 -0.350468 
0.0181478 -0.261253 -0.270832 
-0.102385 0.109377 -0.254567 
-0.159881 0.347978 -0.332773 
-0.0473427 -0.379159 -0.303314 
-0.208328 -0.0902377 0.0920026 
-0.0361339 0.208547 -0.178884 
-0.060106 0.0984194 -0.340973 
0.108556 0.351673 -0.340116 
0.234346 -0.427249 -0.160662 
0.219879 -0.199485 -0.316913 
0.289847 -0.101332 -0.139183 
0.154167 0.221308 -0.303215 
0.188423 0.361384 -0.270579 
0.403288 -0.393888 -0.258424 
0.439993 -0.223744 -0.226768 
0.446299 -0.0212688 -0.328184 
0.300668 0.113758 -0.300712 
0.413151 0.401044 -0.132766 
-0.254113 -0.336096 -0.183073 
-0.429664 -0.321062 -0.315977 
-0.441213 0.345747 -0.134884 
-0.344557 0.326294 -0.0763725 
-0.448476 0.410238 -0.0360029 
-0.141154 -0.419185 -0.280784 
-0.0499682 0.139987 -0.0906166 
-0.256418 -0.171642 -0.0742846 
-0.179027 0.173708 -0.210751 
-0.15894 0.340747 -0.226795 
-0.0713338 -0.386541 -0.221314 
-0.142039 -0.139937 -0.0503432 
-0.118227 -0.01518 -0.241042 
-0.017764 0.108221 -0.209313 
0.0311817 0.447404 -0.287025 
0.29509 -0.331755 -0.183691 
0.254125 -0.306228 -0.356694 
0.349641 -0.0429494 -0.094448 
0.143539 0.276591 -0.239718 
0.213018 0.384981 -0.165692 
0.355522 -0.450004 -0.188055 
0.449185 -0.20134 -0.128083 
0.344387 0.125749 -0.0321475 
0.447049 0.152819 -0.187584 
0.423306 0.367732 -0.0527636 
-0.326546 -0.325843 -0.314282 
-0.127856 -0.198687 -0.302992 
-0.329245 -0.0125028 -0.175924 
-0.22374 0.189001 -0.284374 
-0.420073 0.448673 -0.227609 
-0.254395 -0.432232 -0.291405 
0.128021 -0.345263 -0.239054 
-0.307791 0.2535 -0.148636 
-0.244986 0.298712 -0.221438 
-0.147059 0.442204 -0.257601 
0.00207915 -0.375656 -0.187548 
0.450013 -0.392301 -0.021119 
0.0751678 0.442738 -0.195092 
-0.0755478 0.405553 -0.329734 
-0.0424379 0.449368 -0.230946 
0.357284 -0.385844 -0.113593 
0.37153 -0.0966295 -0.178815 
0.183387 -0.0230702 -0.293648 
0.215174 0.203237 -0.215629 
0.0954664 0.245335 -0.371747 
0.350566 -0.308927 -0.26211 
0.350485 -0.150293 -0.264029 
0.449984 0.0908921 -0.296029 
0.450022 0.209844 -0.269705 
0.403788 0.452511 -0.0493668 
-0.342426 -0.394657 -0.0245217 
-0.14923 -0.343897 -0.200449 
-0.435299 -0.114441 -0.188015 
-0.450003 0.0995004 -0.199927 
-0.337385 0.201948 -0.289512 
-0.151009 -0.445556 -0.198682 
-0.0833454 -0.286728 -0.282006 
-0.22535 0.448491 -0.325034 
-0.282518 0.310416 -0.291345 
-0.226989 0.434513 -0.19884 
0.0529412 -0.40248 -0.0992719 
-0.117803 0.450001 0.102523 
0.0366633 0.184419 -0.114713 
-0.0724895 0.310278 -0.215048 
0.0107198 0.366822 -0.227648 
0.267855 -0.419724 -0.0632565 
0.0326025 -0.0957949 -0.0393985 
0.143358 -0.0431644 -0.161921 
0.28512 0.176806 -0.161019 
0.0493456 0.259915 -0.193303 
0.389774 -0.290568 -0.172016 
0.449302 -0.128759 -0.196892 
0.325577 -0.0522119 -0.268352 
0.449943 0.28352 -0.202108 
0.301315 0.413914 -0.111585 
-0.28698 -0.348685 -0.082246 
-0.431138 0.00294753 -0.225842 
-0.39377 -0.275837 -0.11286 
-0.429471 0.142806 -0.287659 
-0.450005 0.450006 -0.127734 
-0.112661 -0.435189 -0.107358 
-0.124937 -0.327032 -0.100192 
-0.284886 0.0881225 -0.313025 
-0.13612 0.275072 -0.136005 
-0.240797 0.3894 -0.117191 
-0.0123683 -0.418727 -0.0259863 
-0.411154 -0.181661 -0.337444 
-0.00244556 -0.00127285 -0.230665 
-0.0388061 0.296045 -0.124426 
-0.00885991 0.444506 -0.143612 
0.145056 -0.374026 -0.0469879 
0.447274 0.00419544 0.00330563 
0.0736388 -0.0262264 -0.0990089 
0.304332 0.33272 -0.245566 
0.281055 0.449097 -0.203065 
0.373759 -0.449998 -0.052204 
0.429028 -0.0508373 0.0710792 
0.240293 -0.0523474 -0.351257 
0.3471 0.257638 -0.211223 
0.438747 0.444491 0.0404684 
-0.351653 -0.198727 -0.0693745 
-0.387611 -0.295286 -0.224341 
-0.405658 0.0968361 -0.12549 
-0.383822 0.31134 -0.202713 
-0.449991 0.359246 -0.287247 
-0.169365 -0.439245 0.0149635 
-0.0709191 -0.126697 -0.248236 
-0.222626 0.295579 -0.117035 
-0.101776 0.392845 -0.181373 
-0.0724497 0.437658 -0.0631091 
-0.0858069 -0.450587 0.00311931 
0.078563 -0.183029 -0.286445 
-0.0771179 0.0628698 -0.148241 
0.0386288 0.252262 -0.0602923 
0.0108865 0.421955 -0.0757919 
0.160266 -0.34546 -0.126313 
0.179455 -0.190113 -0.23546 
0.109033 0.163872 -0.235856 
0.309375 0.219607 -0.0783546 
0.169119 0.45002 -0.228556 
0.450006 -0.420339 -0.17402 
0.320645 -0.258778 -0.0119664 
0.421235 -0.0257045 -0.231491 
0.364845 0.164596 -0.243278 
0.414392 0.267878 0.0707447 
-0.419988 -0.379378 0.0232471 
-0.450006 -0.22359 -0.255399 
-0.365096 0.214294 -0.0975882 
-0.448524 0.0490725 -0.0379145 
-0.450039 0.183128 -0.107791 
-0.216069 -0.380183 -0.0347696 
-0.280271 -0.0975043 -0.1371 
-0.334161 -0.106456 -0.227381 
-0.188204 0.35011 -0.0312186 
-0.130503 0.401628 0.00497862 
0.032171 -0.191034 -0.15222 
-0.153736 -0.251496 -0.159148 
0.219741 0.116255 -0.127956 
0.0889154 0.333135 -0.112675 
-0.0201327 0.439858 0.017003 
0.0899682 -0.219449 -0.0628819 
0.455729 -0.0641963 -0.124321 
0.282724 0.0653339 -0.0572386 
0.176534 0.223466 -0.135522 
0.100936 0.330769 0.0262637 
0.396481 -0.0872026 -0.0368953 
0.450001 -0.267035 -0.0457608 
0.36017 0.0122981 -0.162011 
0.422406 0.110724 -0.100308 
0.321213 0.324765 -0.1461 
-0.423072 -0.193853 -0.165759 
-0.450004 -0.222917 -0.0684503 
-0.402356 -0.0142648 -0.129836 
-0.449998 0.276077 0.0252439 
-0.340129 0.450015 -0.153907 
-0.234108 -0.301166 0.0355222 
-0.268927 -0.264843 -0.0402761 
-0.329285 0.0665982 -0.07962 
-0.122135 0.218066 -0.0673731 
-0.123949 0.187633 -0.00050511 
0.0264107 -0.309581 -0.0517655 
-0.115362 -0.103659 -0.139628 
0.107476 0.113862 -0.1123 
-0.159409 0.0994805 -0.14353 
0.0465409 0.399738 0.0790462 
0.0368471 -0.289261 -0.15785 
0.281767 -0.0709234 -0.0369721 
0.263075 0.0264511 -0.127567 
0.181849 0.286994 -0.0613652 
0.11099 0.349162 -0.199424 
0.322942 -0.34448 0.039505 
0.257553 -0.180317 -0.0929527 
0.419128 0.19153 -0.0414759 
0.400561 0.243433 -0.124906 
0.43603 0.284163 -0.0375773 
-0.335938 -0.334301 0.0542927 
-0.339461 -0.239245 -0.298143 
-0.451448 -0.0782919 -0.0702142 
-0.449994 0.117115 0.0627541 
-0.272786 0.369681 -0.0219177 
-0.0640838 -0.188078 -0.186591 
-0.177115 -0.23264 -0.0637666 
-0.262089 -0.0253488 -0.0702902 
-0.28066 0.224227 -0.0405892 
-0.20806 0.416737 0.0487325 
0.199626 -0.0646761 -0.111118 
-0.00106405 -0.0870106 -0.179012 
-0.135347 -0.0282919 0.0630405 
-0.0314126 0.247256 0.000904398 
-0.0774243 0.343104 0.0516719 
0.31379 -0.441754 0.0458187 
0.331001 -0.217807 0.0728586 
0.173038 0.0354508 -0.140965 
0.263235 0.281979 -0.0286781 
0.236971 0.449995 -0.048492 
0.449996 -0.170158 -0.0209666 
0.317753 0.35443 -0.0406567 
0.450003 0.0888542 -0.00673162 
0.435686 0.167029 0.0540472 
0.373909 0.358957 0.0538824 
-0.400865 -0.376338 0.114359 
-0.413003 -0.262265 0.0157019 
-0.192299 -0.060833 -0.120865 
-0.45 0.279536 -0.0759425 
-0.38441 0.350414 0.0121203 
-0.206312 -0.390991 0.0652212 
-0.287288 -0.0506957 0.0271287 
-0.0435604 -0.0246138 -0.113338 
-0.274876 0.132002 -0.12969 
-0.287267 0.392237 0.0991872 
0.186961 -0.45266 -0.020099 
0.114192 -0.140338 -0.17432 
0.0264472 0.0568512 -0.130609 
-0.0854779 0.107571 0.0324956 
-0.0417904 0.400776 0.116473 
0.312024 -0.42084 0.143094 
0.199942 -0.12094 -0.0198475 
0.102541 0.194496 -0.0505308 
0.260516 0.171482 0.103693 
0.150408 0.414914 -0.0928274 
0.411449 -0.45001 0.0508789 
0.33743 -0.1589 0.000518299 
-0.217911 0.0994134 -0.0710092 
0.351017 0.222914 0.0246727 
0.322766 0.444756 0.0172757 
-0.441806 -0.449919 0.117185 
-0.27708 0.0458383 0.00310404 
-0.384271 -0.0166958 -0.0218683 
-0.410173 0.143659 -0.0250443 
-0.450001 0.41374 0.0639238 
-0.293753 -0.445647 0.0401543 
-0.236745 -0.156356 0.0225569 
-0.177835 0.0346857 -0.00198341 
-0.321094 0.127052 0.0100272 
-0.390417 0.403063 0.150257 
0.234319 -0.236613 0.0857224 
-0.0463317 -0.143467 -0.0792292 
-0.0931659 0.0582381 -0.0496496 
0.01977 0.341274 -0.026422 
0.0119238 0.303566 0.0709656 
0.193072 -0.250437 -0.0986685 
0.209504 -0.278266 -0.00404879 
0.181753 -0.00386859 -0.045952 
0.188873 0.172123 -0.0359218 
0.0877803 0.425435 -0.0132267 
0.419917 -0.349368 0.0640289 
0.449634 -0.148527 0.0766651 
0.34353 0.00553197 -0.00907043 
0.267811 0.168066 0.0164158 
0.455794 0.35153 0.0897409 
-0.313949 -0.29925 0.119581 
-0.195093 -0.0662835 -0.00836709 
-0.42934 -0.0204199 0.0769263 
-0.365498 0.222804 0.0166922 
-0.354778 0.448812 -0.054997 
-0.168408 -0.238456 0.0302654 
-0.185005 -0.186252 0.1074 
-0.0889673 -0.0386757 -0.025348 
-0.3023 0.29877 0.0446865 
-0.207749 0.24044 0.0265072 
-0.0429823 -0.118213 0.0131978 
-0.0423475 -0.242844 -0.123866 
0.0137532 0.00764589 -0.0379623 
0.232411 -0.167148 0.0294662 
0.0126363 0.448418 0.185907 
0.2157 -0.368455 0.0345917 
0.444235 -0.291742 0.127672 
0.300862 0.0627944 0.0547284 
0.184071 0.250072 0.041107 
0.186438 0.373209 -0.00354124 
0.402355 -0.409706 0.14194 
0.449994 -0.206328 0.158262 
0.321325 -0.069486 0.0580116 
0.398632 0.0751436 0.0779597 
0.240755 0.428918 0.0669172 
VERTICES 500 1000
1 0
1 1
1 2
1 3
1 4
1 5
1 6
1 7
1 8
1 9
1 10
1 11
1 12
1 13
1 14
1 15
1 16
1 17
1 18
1 19
1 20
1 21
1 22
1 23
1 24
1 25
1 26
1 27
1 28
1 29
1 30
1 31
1 32
1 33
1 34
1 35
1 36
1 37
1 38
1 39
1 40
1 41
1 42
1 43
1 44
1 45
1 46
1 47
1 48
1 49
1 50
1 51
1 52
1 53
1 54
1 55
1 56
1 57
1 58
1 59
1 60
1 61
1 62
1 63
1 64
1 65
1 66
1 67
1 68
1 69
1 70
1 71
1 72
1 73
1 74
1 75
1 76
1 77
1 78
1 79
1 80
1 81
1 82
1 83
1 84
1 85
1 86
1 87
1 88
1 89
1 90
1 91
1 92
1 93
1 94
1 95
1 96
1 97
1 98
1 99
1 100
1 101
1 102
1 103
1 104
1 105
1 106
1 107
1 108
1 109
1 110
1 111
1 112
1 113
1 114
1 115
1 116
1 117
1 118
1 119
1 120
1 121
1 122
1 123
1 124
1 125
1 126
1 127
1 128
1 129
1 130
1 131
1 132
1 133
1 134
1 135
1 136
1 137
1 138
1 139
1 140
1 141
1 142
1 143
1 144
1 145
1 146
1 147
1 148
1 149
1 150
1 151
1 152
1 153
1 154
1 155
1 156
1 157
1 158
1 159
1 160
1 161
1 162
1 163
1 164
1 165
1 166
1 167
1 168
1 169
1 170
1 171
1 172
1 173
1 174
1 175
1 176
1 177
1 178
1 179
1 180
1 181
1 182
1 183
1 184
1 185
1 186
1 187
1 188
1 189
1 190
1 191
1 192
1 193
1 194
1 195
1 196
1 197
1 198
1 199
1 200
1 201
1 202
1 203
1 204
1 205
1 206
1 207
1 208
1 209
1 210
1 211
1 212
1 213
1 214
1 215
1 216
1 217
1 218
1 219
1 220
1 221
1 222
1 223
1 224
1 225
1 226
1 227
1 228
1 229
1 230
1 231
1 232
1 233
1 234
1 235
1 236
1 237
1 238
1 239
1 240
1 241
1 242
1 243
1 244
1 245
1 246
1 247
1 248
1 249
1 250
1 251
1 252
1 253
1 254
1 255
1 256
1 257
1 258
1 259
1 260
1 261
1 262
1 263
1 264
1 265
1 266
1 267
1 268
1 269
1 270
1 271
1 272
1 273
1 274
1 275
1 276
1 277
1 278
1 279
1 280
1 281
1 282
1 283
1 284
1 285
1 286
1 287
1 288
1 289
1 290
1 291
1 292
1 293
1 294
1 295
1 296
1 297
1 298
1 299
1 300
1 301
1 302
1 303
1 304
1 305
1 306
1 307
1 308
1 309
1 310
1 311
1 312
1 313
1 314
1 315
1 316
1 317
1 318
1 319
1 320
1 321
1 322
1 323
1 324
1 325
1 326
1 327
1 328
1 329
1 330
1 331
1 332
1 333
1 334
1 335
1 336
1 337
1 338
1 339
1 340
1 341
1 342
1 343
1 344
1 345
1 346
1 347
1 348
1 349
1 350
1 351
1 352
1 353
1 354
1 355
1 356
1 357
1 358
1 359
1 360
1 361
1 362
1 363
1 364
1 365
1 366
1 367
1 368
1 369
1 370
1 371
1 372
1 373
1 374
1 375
1 376
1 377
1 378
1 379
1 380
1 381
1 382
1 383
1 384
1 385
1 386
1 387
1 388
1 389
1 390
1 391
1 392
1 393
1 394
1 395
1 396
1 397
1 398
1 399
1 400
1 401
1 402
1 403
1 404
1 405
1 406
1 407
1 408
1 409
1 410
1 411
1 412
1 413
1 414
1 415
1 416
1 417
1 418
1 419
1 420
1 421
1 422
1 423
1 424
1 425
1 426
1 427
1 428
1 429
1 430
1 431
1 432
1 433
1 434
1 435
1 436
1 437
1 438
1 439
1 440
1 441
1 442
1 443
1 444
1 445
1 446
1 447
1 448
1 449
1 450
1 451
1 452
1 453
1 454
1 455
1 456
1 457
1 458
1 459
1 460
1 461
1 462
1 463
1 464
1 465
1 466
1 467
1 468
1 469
1 470
1 471
1 472
1 473
1 474
1 475
1 476
1 477
1 478
1 479
1 480
1 481
1 482
1 483
1 484
1 485
1 486
1 487
1 488
1 489
1 490
1 491
1 492
1 493
1 494
1 495
1 496
1 497
1 498
1 499
POINT_DATA 500
SCALARS id int 1
LOOKUP_TABLE default
0
1
2
3
4
5
6
7
8
9
10
11
12
13
14
15
16
17
18
19
20
21
22
23
24
25
26
27
28
29
30
31
32
33
34
35
36
37
38
39
40
41
42
43
44
45
46
47
48
49
50
51
52
53
54
55
56
57
58
59
60
61
62
63
64
65
66
67
68
69
70
71
72
73
74
75
76
77
78
79
80
81
82
83
84
85
86
87
88
89
90
91
92
93
94
95
96
97
98
99
100
101
102
103
104
105
106
107
108
109
110
111
112
113
114
115
116
117
118
119
120
121
122
123
124
125
126
127
128
129
130
131
132
133
134
135
136
137
138
139
140
141
142
143
144
145
146
147
148
149
150
151
152
153
154
155
156
157
158
159
160
161
162
163
164
165
166
167
168
169
170
171
172
173
174
175
176
177
178
179
180
181
182
183
184
185
186
187
188
189
190
191
192
193
194
195
196
197
198
199
200
201
202
203
204
205
206
207
208
209
210
211
212
213
214
215
216
217
218
219
220
221
222
223
224
225
226
227
228
229
230
231
232
233
234
235
236
237
238
239
240
241
242
243
244
245
246
247
248
249
250
251
252
253
254
255
256
257
258
259
260
261
262
263
264
265
266
267
268
269
270
271
272
273
274
275
276
277
278
279
280
281
282
283
284
285
286
287
288
289
290
291
292
293
294
295
296
297
298
299
300
301
302
303
304
305
306
307
308
309
310
311
312
313
314
315
316
317
318
319
320
321
322
323
324
325
326
327
328
329
330
331
332
333
334
335
336
337
338
339
340
341
342
343
344
345
346
347
348
349
350
351
352
353
354
355
356
357
358
359
360
361
362
363
364
365
366
367
368
369
370
371
372
373
374
375
376
377
378
379
380
381
382
383
384
385
386
387
388
389
390
391
392
393
394
395
396
397
398
399
400
401
402
403
404
405
406
407
408
409
410
411
412
413
414
415
416
417
418
419
420
421
422
423
424
425
426
427
428
429
430
431
432
433
434
435
436
437
438
439
440
441
442
443
444
445
446
447
448
449
450
451
452
453
454
455
456
457
458
459
460
461
462
463
464
465
466
467
468
469
470
471
472
473
474
475
476
477
478
479
480
481
482
483
484
485
486
487
488
489
490
491
492
493
494
495
496
497
498
499
SCALARS type int 1
LOOKUP_TABLE default
0
0
0
0
0
0
0
0
0
0
0
0
0
0
0
0
0
0
0
0
0
0
0
0
0
0
0
0
0
0
0
0
0
0
0
0
0
0
0
0
0
0
0
0
0
0
0
0
0
0
0
0
0
0
0
0
0
0
0
0
0
0
0
0
0
0
0
0
0
0
0
0
0
0
0
0
0
0
0
0
0
0
0
0
0
0
0
0
0
0
0
0
0
0
0
0
0
0
0
0
0
0
0
0
0
0
0
0
0
0
0
0
0
0
0
0
0
0
0
0
0
0
0
0
0
0
0
0
0
0
0
0
0
0
0
0
0
0
0
0
0
0
0
0
0
0
0
0
0
0
0
0
0
0
0
0
0
0
0
0
0
0
0
0
0
0
0
0
0
0
0
0
0
0
0
0
0
0
0
0
0
0
0
0
0
0
0
0
0
0
0
0
0
0
0
0
0
0
0
0
0
0
0
0
0
0
0
0
0
0
0
0
0
0
0
0
0
0
0
0
0
0
0
0
0
0
0
0
0
0
0
0
0
0
0
0
0
0
0
0
0
0
0
0
0
0
0
0
0
0
0
0
0
0
0
0
0
0
0
0
0
0
0
0
0
0
0
0
0
0
0
0
0
0
0
0
0
0
0
0
0
0
0
0
0
0
0
0
0
0
0
0
0
0
0
0
0
0
0
0
0
0
0
0
0
0
0
0
0
0
0
0
0
0
0
0
0
0
0
0
0
0
0
0
0
0
0
0
0
0
0
0
0
0
0
0
0
0
0
0
0
0
0
0
0
0
0
0
0
0
0
0
0
0
0
0
0
0
0
0
0
0
0
0
0
0
0
0
0
0
0
0
0
0
0
0
0
0
0
0
0
0
0
0
0
0
0
0
0
0
0
0
0
0
0
0
0
0
0
0
0
0
0
0
0
0
0
0
0
0
0
0
0
0
0
0
0
0
0
0
0
0
0
0
0
0
0
0
0
0
0
0
0
0
0
0
0
0
0
0
0
0
0
0
0
0
0
0
0
0
0
0
0
0
0
0
0
0
0
0
0
0
0
0
0
0
0
0
0
0
0
0
0
0
0
0
0
0
0
0
0
0
0
0
0
0
0
0
0
0
0
0
0
0
0
0
0
0
0
0
SCALARS damp_viscous double 1
LOOKUP_TABLE default
0
0
0
0
0
0
0
0
0
0
0
0
0
0
0
0
0
0
0
0
0
0
0
0
0
0
0
0
0
0
0
0
0
0
0
0
0
0
0
0
0
0
0
0
0
0
0
0
0
0
0
0
0
0
0
0
0
0
0
0
0
0
0
0
0
0
0
0
0
0
0
0
0
0
0
0
0
0
0
0
0
0
0
0
0
0
0
0
0
0
0
0
0
0
0
0
0
0
0
0
0
0
0
0
0
0
0
0
0
0
0
0
0
0
0
0
0
0
0
0
0
0
0
0
0
0
0
0
0
0
0
0
0
0
0
0
0
0
0
0
0
0
0
0
0
0
0
0
0
0
0
0
0
0
0
0
0
0
0
0
0
0
0
0
0
0
0
0
0
0
0
0
0
0
0
0
0
0
0
0
0
0
0
0
0
0
0
0
0
0
0
0
0
0
0
0
0
0
0
0
0
0
0
0
0
0
0
0
0
0
0
0
0
0
0
0
0
0
0
0
0
0
0
0
0
0
0
0
0
0
0
0
0
0
0
0
0
0
0
0
0
0
0
0
0
0
0
0
0
0
0
0
0
0
0
0
0
0
0
0
0
0
0
0
0
0
0
0
0
0
0
0
0
0
0
0
0
0
0
0
0
0
0
0
0
0
0
0
0
0
0
0
0
0
0
0
0
0
0
0
0
0
0
0
0
0
0
0
0
0
0
0
0
0
0
0
0
0
0
0
0
0
0
0
0
0
0
0
0
0
0
0
0
0
0
0
0
0
0
0
0
0
0
0
0
0
0
0
0
0
0
0
0
0
0
0
0
0
0
0
0
0
0
0
0
0
0
0
0
0
0
0
0
0
0
0
0
0
0
0
0
0
0
0
0
0
0
0
0
0
0
0
0
0
0
0
0
0
0
0
0
0
0
0
0
0
0
0
0
0
0
0
0
0
0
0
0
0
0
0
0
0
0
0
0
0
0
0
0
0
0
0
0
0
0
0
0
0
0
0
0
0
0
0
0
0
0
0
0
0
0
0
0
0
0
0
0
0
0
0
0
0
0
0
0
0
0
0
0
0
0
0
0
0
0
0
0
0
0
0
0
0
0
0
0
0
0
0
0
0
0
0
0
0
0
0
0
0
0
0
SCALARS damp_numerical double 1
LOOKUP_TABLE default
0.5
0.5
0.5
0.5
0.5
0.5
0.5
0.5
0.5
0.5
0.5
0.5
0.5
0.5
0.5
0.5
0.5
0.5
0.5
0.5
0.5
0.5
0.5
0.5
0.5
0.5
0.5
0.5
0.5
0.5
0.5
0.5
0.5
0.5
0.5
0.5
0.5
0.5
0.5
0.5
0.5
0.5
0.5
0.5
0.5
0.5
0.5
0.5
0.5
0.5
0.5
0.5
0.5
0.5
0.5
0.5
0.5
0.5
0.5
0.5
0.5
0.5
0.5
0.5
0.5
0.5
0.5
0.5
0.5
0.5
0.5
0.5
0.5
0.5
0.5
0.5
0.5
0.5
0.5
0.5
0.5
0.5
0.5
0.5
0.5
0.5
0.5
0.5
0.5
0.5
0.5
0.5
0.5
0.5
0.5
0.5
0.5
0.5
0.5
0.5
0.5
0.5
0.5
0.5
0.5
0.5
0.5
0.5
0.5
0.5
0.5
0.5
0.5
0.5
0.5
0.5
0.5
0.5
0.5
0.5
0.5
0.5
0.5
0.5
0.5
0.5
0.5
0.5
0.5
0.5
0.5
0.5
0.5
0.5
0.5
0.5
0.5
0.5
0.5
0.5
0.5
0.5
0.5
0.5
0.5
0.5
0.5
0.5
0.5
0.5
0.5
0.5
0.5
0.5
0.5
0.5
0.5
0.5
0.5
0.5
0.5
0.5
0.5
0.5
0.5
0.5
0.5
0.5
0.5
0.5
0.5
0.5
0.5
0.5
0.5
0.5
0.5
0.5
0.5
0.5
0.5
0.5
0.5
0.5
0.5
0.5
0.5
0.5
0.5
0.5
0.5
0.5
0.5
0.5
0.5
0.5
0.5
0.5
0.5
0.5
0.5
0.5
0.5
0.5
0.5
0.5
0.5
0.5
0.5
0.5
0.5
0.5
0.5
0.5
0.5
0.5
0.5
0.5
0.5
0.5
0.5
0.5
0.5
0.5
0.5
0.5
0.5
0.5
0.5
0.5
0.5
0.5
0.5
0.5
0.5
0.5
0.5
0.5
0.5
0.5
0.5
0.5
0.5
0.5
0.5
0.5
0.5
0.5
0.5
0.5
0.5
0.5
0.5
0.5
0.5
0.5
0.5
0.5
0.5
0.5
0.5
0.5
0.5
0.5
0.5
0.5
0.5
0.5
0.5
0.5
0.5
0.5
0.5
0.5
0.5
0.5
0.5
0.5
0.5
0.5
0.5
0.5
0.5
0.5
0.5
0.5
0.5
0.5
0.5
0.5
0.5
0.5
0.5
0.5
0.5
0.5
0.5
0.5
0.5
0.5
0.5
0.5
0.5
0.5
0.5
0.5
0.5
0.5
0.5
0.5
0.5
0.5
0.5
0.5
0.5
0.5
0.5
0.5
0.5
0.5
0.5
0.5
0.5
0.5
0.5
0.5
0.5
0.5
0.5
0.5
0.5
0.5
0.5
0.5
0.5
0.5
0.5
0.5
0.5
0.5
0.5
0.5
0.5
0.5
0.5
0.5
0.5
0.5
0.5
0.5
0.5
0.5
0.5
0.5
0.5
0.5
0.5
0.5
0.5
0.5
0.5
0.5
0.5
0.5
0.5
0.5
0.5
0.5
0.5
0.5
0.5
0.5
0.5
0.5
0.5
0.5
0.5
0.5
0.5
0.5
0.5
0.5
0.5
0.5
0.5
0.5
0.5
0.5
0.5
0.5
0.5
0.5
0.5
0.5
0.5
0.5
0.5
0.5
0.5
0.5
0.5
0.5
0.5
0.5
0.5
0.5
0.5
0.5
0.5
0.5
0.5
0.5
0.5
0.5
0.5
0.5
0.5
0.5
0.5
0.5
0.5
0.5
0.5
0.5
0.5
0.5
0.5
0.5
0.5
0.5
0.5
0.5
0.5
0.5
0.5
0.5
0.5
0.5
0.5
0.5
0.5
0.5
0.5
0.5
0.5
0.5
0.5
0.5
0.5
0.5
0.5
0.5
0.5
0.5
0.5
0.5
0.5
0.5
0.5
0.5
0.5
0.5
0.5
0.5
0.5
0.5
0.5
0.5
0.5
0.5
0.5
0.5
0.5
0.5
0.5
0.5
0.5
0.5
0.5
0.5
0.5
0.5
0.5
0.5
0.5
0.5
0.5
0.5
0.5
0.5
0.5
0.5
0.5
0.5
0.5
0.5
0.5
0.5
0.5
0.5
SCALARS quat double 4
LOOKUP_TABLE default
0.778591 0.000133193 -0.0682073 0.623814 
0.792342 0.099523 0.601904 0.000995466 
0.989785 0.0758018 -0.0458686 -0.111699 
-0.365432 -0.502922 -0.531606 -0.575259 
0.126205 0.533293 -0.540252 0.638591 
0.810168 -0.271189 -0.19562 0.481474 
0.343398 -0.775093 -0.139362 0.511749 
0.886626 0.0340244 0.383171 0.256743 
-0.0993514 0.442383 0.890977 -0.0242156 
0.043417 0.0954633 0.0365671 0.993813 
0.855467 0.162543 -0.057794 0.488278 
0.0599103 -0.931446 -0.0705179 -0.351918 
0.184033 0.44053 -0.0695369 0.875916 
0.608306 0.693483 0.371842 -0.10382 
0.320997 0.829628 -0.207188 0.407125 
0.991084 0.0949874 -0.0694594 0.0624883 
0.715853 0.053127 -0.0100637 0.696154 
0.993915 0.0275138 -0.0369479 0.100058 
0.977296 0.127071 -0.108851 0.129991 
-0.720455 0.232022 0.648259 0.0828933 
0.824286 0.199746 0.482288 -0.219211 
-0.258677 0.891924 -0.220548 0.29819 
0.808199 -0.252172 -0.438734 -0.301225 
0.494715 0.76246 -0.405941 -0.0955243 
0.984375 0.0863105 -0.0935081 0.121711 
0.81624 0.156561 -0.211162 0.514444 
-0.728265 0.55523 -0.381612 0.125391 
0.968825 0.116633 -0.190979 -0.106311 
0.862116 -0.218136 -0.419593 0.181974 
-0.161821 0.379906 -0.329784 0.848957 
0.653026 0.473672 0.481531 0.342518 
-0.158658 -0.589485 -0.55218 -0.567831 
0.268928 0.0033006 -0.903647 0.333301 
0.0798989 0.116635 0.0849186 0.986307 
0.532949 0.758464 0.144934 -0.345966 
0.5272 -0.42257 -0.0215259 0.736907 
-0.178795 0.536098 -0.428728 0.704857 
0.277738 0.225899 0.228494 0.90533 
0.744663 -0.62093 -0.216876 0.113519 
0.576902 0.600812 -0.147564 -0.533324 
0.924512 0.156336 -0.190388 0.290841 
0.693188 0.190225 -0.0628153 0.692357 
0.988184 -0.109971 -0.103485 -0.0262706 
-0.00842195 0.84083 0.512113 -0.17514 
0.809144 -0.516078 -0.201213 -0.196119 
0.264119 0.275264 -0.650575 0.656676 
0.548256 -0.156798 0.113261 -0.813635 
-0.953956 0.205361 -0.16941 0.138182 
0.361875 0.691266 -0.548731 0.300156 
-0.864676 0.486113 0.067781 -0.106937 
0.90561 0.352733 -0.186013 -0.144396 
-0.23742 0.454472 0.825848 -0.234656 
0.721095 0.0652148 0.615807 -0.310727 
-0.616212 0.441915 -0.651617 0.0197258 
-0.467325 0.562958 0.396027 -0.55484 
-0.343305 0.578111 0.72677 -0.140479 
-0.168205 0.210951 0.908383 -0.319447 
0.0393182 -0.0496239 -0.891966 -0.447647 
-0.174839 0.114487 0.718522 -0.663363 
0.333594 -0.923342 -0.153726 0.111906 
-0.405715 0.307263 0.695412 -0.507333 
-0.884395 -0.112955 0.0715082 0.447183 
-0.294919 -0.707536 0.13123 0.628645 
0.157365 0.160217 0.962452 0.15249 
-0.0710103 0.0423681 0.992926 -0.0852045 
0.896185 0.29218 -0.323066 -0.0843293 
-0.000141471 -0.964048 -0.171384 0.203073 
0.959201 -0.1692 -0.153687 0.16639 
0.890764 0.0587241 0.395408 -0.216203 
-0.964071 0.0881995 0.018231 -0.249909 
0.687266 -0.6375 -0.200607 0.284633 
-0.635355 -0.648548 -0.391824 -0.148943 
0.250196 0.374569 -0.00920256 -0.892757 
-0.643401 0.672485 -0.323217 -0.171259 
0.95488 -0.203614 0.00775978 -0.21607 
0.95268 0.0815931 -0.0727497 -0.283639 
0.635977 -0.0634117 -0.661157 0.392916 
0.888128 -0.332836 0.31589 -0.0257327 
-0.693077 -0.22376 0.00296494 0.685249 
-0.592975 0.358451 -0.0596323 -0.718567 
0.970522 0.021441 0.240053 0.00144796 
-0.242536 0.910117 0.0077209 0.335861 
0.738295 -0.0286986 0.672716 -0.0393672 
-0.236678 0.844175 -0.278929 0.391855 
0.938065 -0.30401 0.155252 -0.0592338 
0.783779 -0.549423 -0.270125 0.104199 
-0.0744174 -0.464808 -0.0938073 -0.877277 
0.735918 0.380873 0.0487191 -0.557663 
0.330419 0.928401 0.0603547 -0.158911 
-0.268722 0.581695 -0.693427 0.329512 
0.8109 -0.355799 0.421803 -0.194757 
-0.832428 0.343297 -0.40915 0.147674 
0.868436 -0.0301343 -0.437513 0.231286 
0.748551 -0.515728 0.408069 0.0847035 
0.790141 0.0517285 0.330625 -0.513507 
0.282978 -0.577797 -0.528377 -0.553979 
0.216938 -0.768345 0.553356 0.237448 
0.352624 -0.0305508 -0.906798 0.228998 
-0.551524 0.606276 0.313449 -0.479583 
0.979611 -0.15564 -0.0335534 -0.122523 
0.829283 -0.15066 -0.0891137 -0.530708 
0.446403 0.439469 0.754066 0.197426 
-0.206441 0.429712 -0.87905 0.00116956 
-0.521325 -0.49183 -0.686265 0.123949 
-0.201158 -0.0819209 -0.538066 0.814438 
0.862373 0.255769 0.155716 0.408226 
-0.875563 0.3585 0.250137 -0.205665 
0.534032 0.667829 0.422405 0.300647 
0.883848 0.289 -0.139022 -0.340536 
-0.0803802 0.252489 -0.94793 0.176683 
-0.0577283 -0.546512 -0.650525 0.524222 
-0.50943 -0.172826 0.778737 0.322772 
-0.0834365 -0.208256 0.109345 -0.968355 
0.852876 -0.238603 0.395993 0.242612 
-0.291991 0.0311614 0.0219473 0.955661 
0.903883 -0.358009 0.206843 -0.109728 
0.214272 -0.731986 0.601522 0.237604 
0.37487 -0.0910575 -0.461933 0.798623 
0.850277 -0.00791037 0.187581 0.491711 
0.181235 0.125213 -0.810155 0.543254 
0.0403179 0.371129 0.298117 -0.878501 
-0.152219 -0.294195 -0.803287 0.494984 
0.32496 -0.46207 -0.418168 -0.711356 
-0.896343 -0.252153 -0.260335 0.255369 
0.793815 -0.564077 0.0118626 0.22701 
0.764436 0.340902 -0.518036 -0.176243 
0.443741 0.554653 0.562527 -0.423104 
0.529569 0.268047 0.197434 -0.78021 
-0.411655 0.119555 0.898301 -0.0964437 
0.464499 -0.398484 0.693637 0.379893 
-0.0359143 0.186349 0.945442 -0.264807 
-0.962033 0.0373732 -0.132738 -0.235533 
-0.162619 -0.631878 -0.725744 -0.218132 
0.242403 0.183252 -0.952591 -0.0151416 
0.134611 -0.91474 0.242062 0.294172 
0.0768753 -0.152179 0.763885 0.622423 
0.166774 0.690956 0.331628 0.620314 
-0.775679 -0.594532 0.0927389 -0.190405 
0.331342 0.919983 -0.159305 -0.135888 
-0.0935354 0.813568 -0.573871 0.0053959 
-0.421843 0.138235 -0.882734 0.154017 
0.318237 -0.420684 0.174158 0.831516 
-0.0972019 0.516772 -0.256365 0.811034 
0.944977 -0.261395 -0.179994 0.0793317 
0.00266216 -0.515412 -0.791708 -0.327935 
-0.35979 -0.860955 0.211323 0.290947 
0.5357 -0.633853 0.389362 -0.399567 