# vtk DataFile Version 2.0
Generated by NetDEM
ASCII 
DATASET POLYDATA
POINTS 500 double
-0.41881 -0.406944 -0.46375 
-0.446103 -0.206063 -0.450052 
-0.412525 -0.00609669 -0.464836 
-0.44921 0.113698 -0.450011 
-0.44917 0.349661 -0.45004 
-0.271047 -0.4296 -0.459138 
-0.307771 -0.21061 -0.450033 
-0.19519 -0.00925591 -0.450042 
-0.173223 0.172039 -0.463809 
-0.253027 0.366473 -0.463176 
-0.0559338 -0.396533 -0.460782 
-0.145167 -0.13423 -0.450015 
-0.0558481 -0.0871916 -0.45002 
0.0360469 0.179008 -0.452312 
-0.0309825 0.319044 -0.441423 
0.19316 -0.401334 -0.46289 
0.168835 -0.210216 -0.46311 
0.173071 -0.0076867 -0.462781 
0.160437 0.209388 -0.465049 
0.301595 0.403817 -0.414184 
0.450007 -0.407716 -0.450029 
0.430796 -0.303142 -0.450029 
0.33696 -0.0146258 -0.450007 
0.380538 0.0909722 -0.450016 
0.371158 0.438923 -0.465072 
-0.429087 -0.40733 -0.392716 
-0.449991 -0.249241 -0.359873 
-0.409389 -0.0179972 -0.385458 
-0.449387 0.176723 -0.37152 
-0.446134 0.45 -0.450007 
-0.333374 -0.407512 -0.402932 
-0.230978 -0.163337 -0.406833 
-0.154234 -0.0986241 -0.202981 
-0.308446 0.157863 -0.463121 
-0.145919 0.402532 -0.447004 
-0.0851544 -0.388629 -0.395683 
0.317193 -0.238221 -0.105425 
-0.0317788 -0.0146679 -0.302149 
0.0263728 0.259565 -0.449912 
0.118859 0.301427 -0.425667 
0.203937 -0.413698 -0.390148 
0.165625 -0.205408 -0.389829 
0.174709 0.0132784 -0.385367 
0.195859 0.112411 -0.456325 
0.286888 0.374043 -0.319881 
0.395106 -0.450008 -0.377949 
0.436892 -0.356065 -0.365426 
0.273943 -0.2029 -0.450007 
0.450013 0.139393 -0.396862 
0.425001 0.339878 -0.456342 
-0.4347 -0.440302 -0.32626 
-0.320472 -0.204184 -0.351072 
-0.315765 -0.0231144 -0.358949 
-0.291065 0.26681 -0.450014 
-0.441116 0.276008 -0.382897 
-0.18137 -0.375256 -0.451175 
0.203143 -0.327934 -0.21902 
-0.23604 -0.0632836 -0.157602 
-0.177407 0.0789603 -0.450321 
-0.348095 0.33474 -0.331372 
0.0437344 -0.438186 -0.449751 
0.208039 -0.284406 -0.102792 
0.212298 0.0683836 -0.189426 
-0.0369622 0.222948 -0.385102 
0.255471 0.331191 -0.463876 
0.20274 -0.435877 -0.319149 
0.0509686 -0.0922217 -0.449989 
0.162138 0.0556261 -0.328776 
0.273477 0.066316 -0.443887 
0.111528 0.137386 -0.398176 
0.296117 -0.450009 -0.397364 
0.378857 -0.217237 -0.450063 
0.381523 -0.107941 -0.450033 
0.450009 0.234064 -0.364669 
0.437674 0.255081 -0.460026 
-0.434431 -0.452825 -0.243869 
-0.177879 -0.171801 -0.322349 
-0.240485 -0.00476233 -0.351568 
-0.27462 0.0943072 -0.402348 
-0.35942 0.142209 -0.334796 
-0.159035 -0.448168 -0.391216 
-0.129622 -0.0554623 -0.390397 
-0.243488 0.0471675 -0.213412 
-0.0557184 0.126454 -0.442593 
-0.357289 0.3737 -0.406933 
0.0951375 -0.452411 -0.355213 
0.449973 -0.324504 -0.0382384 
-0.191492 -0.258149 -0.39108 
0.0206289 0.047535 -0.450068 
0.066055 0.396809 -0.408589 
0.263048 -0.444916 -0.239805 
0.158837 -0.311483 -0.381295 
0.126074 0.0631793 -0.265974 
0.26081 0.176493 -0.444498 
0.15444 0.450003 -0.45001 
0.355776 -0.314777 -0.323829 
0.450008 -0.106179 -0.377201 
0.386139 0.166618 -0.324883 
0.331011 0.308204 -0.412354 
0.431324 0.367573 -0.376012 
-0.390198 -0.438329 -0.168459 
-0.370615 -0.36367 -0.113657 
-0.296326 -0.0416206 -0.267297 
-0.37261 0.0699181 -0.402947 
-0.450007 0.383288 -0.35589 
-0.264325 -0.437492 -0.361434 
-0.082941 -0.128768 -0.340897 
-0.2449 0.0305935 -0.114819 
-0.00688642 -0.0231093 -0.392992 
-0.423434 0.242243 -0.463934 
0.0775365 -0.338304 -0.439424 
0.356733 -0.212632 -0.0172341 
0.0176634 -0.119722 -0.345622 
0.0319955 0.0431168 -0.354115 
-0.00229318 0.437965 -0.464873 
0.302841 -0.386891 -0.205844 
0.259221 -0.321714 -0.353543 
0.0431308 0.0713498 -0.25307 
0.237802 0.232907 -0.3776 
0.349162 0.450023 -0.261113 
0.343678 -0.41151 -0.301313 
0.450032 -0.207873 -0.380504 
0.45 -0.0332336 -0.450007 
0.331661 0.209163 -0.398594 
0.397118 0.450004 -0.369644 
-0.461588 -0.452397 -0.120758 
-0.320229 -0.140659 -0.273865 
-0.450801 -0.03058 -0.316566 
-0.236436 0.182522 -0.367049 
-0.313697 0.438006 -0.345578 
-0.15981 -0.376418 -0.333457 
-0.0916718 -0.224117 -0.38107 
-0.1819 -0.158485 -0.127803 
-0.135607 0.145948 -0.394156 
-0.230635 0.326344 -0.394458 
-0.0999756 -0.305736 -0.415446 
0.297855 -0.321635 -0.0537708 
0.450009 0.0513569 -0.152681 
0.0501694 0.118655 -0.326006 
-0.111203 0.313684 -0.398462 
0.178715 -0.425193 -0.219846 
0.238684 -0.142426 -0.387654 
0.11152 -0.0211863 -0.201808 
0.199927 0.308964 -0.334704 
0.20561 0.384423 -0.393954 
0.449881 -0.446853 -0.294347 
0.336547 -0.176639 -0.369128 
0.25075 -0.066233 -0.450007 
0.450003 0.0544628 -0.344092 
0.438418 0.399167 -0.29457 
-0.443681 -0.457152 0.000691322 
-0.231815 -0.170277 -0.237703 
-0.424512 -0.128252 -0.396267 
-0.207937 0.274583 -0.326594 
-0.330077 0.23313 -0.364325 
-0.138136 -0.296752 -0.308499 
0.127772 -0.45 -0.0797313 
-0.302137 0.361604 -0.139732 
-0.107822 0.276414 -0.315757 
-0.221432 0.445221 -0.40807 
-0.00245779 -0.338614 -0.34511 
0.136278 -0.21711 -0.120697 
-0.165734 -0.071724 -0.298585 
0.0232276 0.193699 -0.2792 
0.00741631 0.293668 -0.337303 
0.0830298 -0.421992 -0.268178 
0.13429 -0.0991892 -0.398245 
0.257565 -0.120827 -0.251678 
0.227416 0.183276 -0.317633 
0.144897 0.449999 -0.349005 
0.391891 -0.224187 -0.300784 
0.348107 -0.0763528 -0.36125 
0.322945 0.0638392 -0.372894 
0.399211 0.299199 -0.308183 
0.445873 0.374105 -0.204864 
-0.329474 -0.441028 -0.0351194 
-0.447961 -0.0935998 -0.254713 
-0.354002 0.0112411 -0.228307 
-0.443811 0.0856039 -0.330266 
-0.42238 0.260313 -0.285957 
-0.270479 -0.306281 -0.446648 
-0.175744 -0.281591 -0.20771 
-0.144328 0.393031 -0.0517034 
-0.128689 0.189219 -0.323949 
-0.144154 0.442245 -0.33452 
0.0101854 -0.434247 -0.354496 
0.0137346 -0.104516 -0.246873 
0.0402682 -0.220366 -0.450007 
-0.0369061 0.268517 -0.234794 
-0.0062591 0.413894 -0.368551 
0.080047 -0.430001 -0.165216 
0.0942793 -0.0429032 -0.326028 
0.298847 -0.163082 -0.171916 
0.203289 0.139702 -0.254891 
0.249324 0.449896 -0.266659 
0.450017 -0.310956 -0.277173 
0.450001 -0.144403 -0.28474 
0.363643 0.0412719 -0.284412 
0.315838 0.244021 -0.306038 
0.381886 0.426963 -0.184898 
-0.241976 -0.442916 -0.0901937 
-0.449816 0.232133 -0.194031 
-0.295135 0.20179 -0.171461 
-0.193325 0.0776519 -0.337607 
-0.381531 0.449977 -0.273093 
-0.218976 -0.353448 -0.232606 
-0.0444033 -0.266205 -0.284266 
0.0133142 -0.245635 -0.205244 
-0.162745 0.114182 -0.244159 
-0.167693 0.354124 -0.32299 
-0.0423472 -0.391732 -0.286911 
-0.117886 -0.178924 0.431843 
-0.0255827 0.203395 -0.155408 
-0.061564 0.125047 -0.27159 
0.113344 0.365226 -0.313504 
0.268489 -0.429621 -0.122442 
0.214157 -0.198915 -0.306572 
0.298839 -0.109346 -0.0977593 
0.151468 0.229468 -0.275284 
0.219571 0.334196 -0.240162 
0.417055 -0.383931 -0.217326 
0.44614 -0.231135 -0.217081 
0.437527 -0.0371422 -0.305952 
0.305471 0.122709 -0.285335 
0.407117 0.407266 -0.11306 
-0.235529 -0.332691 -0.139558 
-0.426787 -0.296163 -0.274244 
-0.422301 0.329979 -0.0900445 
-0.348844 0.324084 -0.040058 
-0.447039 0.441143 0.0139834 
-0.138202 -0.414337 -0.241499 
-0.0553884 0.133385 -0.0444431 
-0.263535 -0.147218 0.016562 
-0.187215 0.177422 -0.17483 
-0.160878 0.336849 -0.21322 
-0.0551915 -0.386722 -0.200905 
-0.1358 -0.158614 0.120187 
-0.118796 -0.0350773 -0.134385 
0.00319276 0.112519 -0.1836 
0.0244238 0.446182 -0.274152 
0.296947 -0.326882 -0.143213 
0.255933 -0.296538 -0.283792 
0.357005 -0.0496797 -0.0448615 
0.158369 0.269817 -0.200937 
0.206662 0.410189 -0.114331 
0.365929 -0.450024 -0.162442 
0.448698 -0.196457 -0.0529861 
0.337336 0.137097 0.0263144 
0.449439 0.151131 -0.159332 
0.428977 0.393162 -0.0313093 
-0.2991 -0.307843 -0.32288 
-0.120295 -0.201885 -0.244431 
-0.322303 -0.0275481 -0.134708 
-0.22071 0.214698 -0.247547 
-0.423271 0.448705 -0.182212 
-0.244996 -0.428321 -0.193103 
0.104061 -0.287019 -0.289224 
-0.307364 0.257367 -0.101996 
-0.244466 0.302809 -0.174641 
-0.156774 0.438557 -0.218586 
0.0172352 -0.378794 -0.147664 
0.449998 -0.393703 0.0451453 
0.0816728 0.438512 -0.164689 
-0.0703303 0.406295 -0.314487 
-0.0323029 0.446688 -0.208465 
0.360973 -0.396225 -0.0734291 
0.376994 -0.101206 -0.145397 
0.19745 -0.0323327 -0.269344 
0.225131 0.198465 -0.180289 
0.0855415 0.236116 -0.365977 
0.366115 -0.297177 -0.212561 
0.357835 -0.147636 -0.246074 
0.447378 0.0818809 -0.24786 
0.448775 0.219201 -0.265825 
0.409929 0.449774 0.0195373 
-0.336651 -0.407546 0.0530011 
-0.137282 -0.340432 -0.0929471 
-0.433343 -0.11138 -0.169499 
-0.450031 0.0949084 -0.155769 
-0.351067 0.200389 -0.249596 
-0.144514 -0.440855 -0.14523 
-0.0573827 -0.307163 -0.143034 
-0.235076 0.439619 -0.283804 
-0.282946 0.317048 -0.274444 
-0.202208 0.433762 -0.123398 
0.0381868 -0.404552 -0.0612947 
-0.112316 0.449965 0.177294 
0.0265167 0.183624 -0.0723676 
-0.0693067 0.309638 -0.173014 
0.00748002 0.373853 -0.152342 
0.272598 -0.427053 -0.0110661 
0.0351586 -0.0976863 0.108589 
0.141484 -0.030631 -0.112736 
0.285271 0.17647 -0.119574 
0.0785991 0.248932 -0.132011 
0.406461 -0.284589 -0.121812 
0.450009 -0.160602 -0.146313 
0.334287 -0.0523546 -0.265172 
0.450001 0.273058 -0.181592 
0.300953 0.407096 -0.042249 
-0.274623 -0.351081 -0.0453415 
-0.413975 0.00225797 -0.166386 
-0.385904 -0.298626 -0.0245929 
-0.427906 0.135831 -0.245192 
-0.450001 0.450001 -0.0856637 
-0.158935 -0.425832 -0.0338379 
-0.146034 -0.318107 0.00415876 
-0.286928 0.0853933 -0.295042 
-0.135162 0.276524 -0.09838 
-0.249648 0.375346 -0.0500021 
-0.0227472 -0.421763 0.00132428 
-0.409747 -0.176644 -0.3002 
0.00361195 -0.0125413 -0.208645 
-0.0427516 0.294724 -0.0646953 
-0.0127548 0.439104 -0.0946616 
0.1331 -0.39807 0.0155316 
0.448005 0.00883247 0.0580133 
0.0899504 -0.0364673 -0.0277601 
0.304913 0.335359 -0.182129 
0.278715 0.450001 -0.171088 
0.37593 -0.45 0.00845604 
0.449998 -0.012728 0.159871 
0.248125 -0.0673935 -0.340724 
0.352388 0.251351 -0.17419 
0.442697 0.449101 0.107037 
-0.333867 -0.314362 0.255621 
-0.375256 -0.26068 -0.130635 
-0.425919 0.103429 -0.0732931 
-0.393911 0.350744 -0.17789 
-0.45001 0.353014 -0.260605 
-0.138014 -0.432419 0.130837 
-0.0521778 -0.152976 -0.189373 
-0.220684 0.287438 -0.049366 
-0.101984 0.378305 -0.139328 
-0.0792508 0.428225 -0.00989526 
-0.0760054 -0.441998 0.0736844 
0.0762268 -0.167985 -0.201419 
-0.0637354 0.0671602 -0.118916 
0.0277513 0.250227 -0.00731176 
0.00431578 0.415215 -0.0180077 
0.1367 -0.329552 -0.0457321 
0.173211 -0.189537 -0.22039 
0.131575 0.156996 -0.0926902 
0.310408 0.220173 -0.035635 
0.174311 0.450004 -0.200536 
0.449999 -0.420713 -0.116903 
0.340127 -0.269767 0.0630833 
0.413184 -0.0259175 -0.209616 
0.374479 0.167263 -0.223595 
0.43421 0.275931 0.42313 
-0.426626 -0.394089 0.0936203 
-0.450004 -0.210539 -0.215138 
-0.369376 0.217084 -0.0572567 
-0.449812 0.0649314 0.0211521 
-0.450002 0.200065 -0.0993212 
-0.221371 -0.387332 0.0428094 
-0.273318 -0.107909 -0.0762476 
-0.320091 -0.122646 -0.1755 
-0.194747 0.362663 0.0376586 
-0.123574 0.398068 0.0816346 
0.0609444 -0.171914 -0.0597554 
-0.140173 -0.240372 -0.0883714 
0.225782 0.136425 -0.0288642 
0.104707 0.304716 0.0518622 
-0.00682811 0.421078 0.079423 
0.0751908 -0.237186 0.279261 
0.459815 -0.0864855 -0.0133621 
0.278927 0.0675088 0.0481831 
0.19439 0.22323 -0.0788683 
0.0662574 0.337128 0.218665 
0.397679 -0.0699044 0.0909065 
0.447883 -0.250181 0.0313772 
0.373238 0.0138469 -0.100613 
0.429983 0.11245 -0.0691932 
0.328568 0.321091 -0.085717 
-0.421331 -0.168758 -0.114753 
-0.449633 -0.258234 0.0812923 
-0.391152 -0.00286304 -0.0717321 
-0.449849 0.332433 0.195763 
-0.328379 0.449971 0.137363 
-0.235058 -0.320257 0.10893 
-0.268236 -0.292614 0.023468 
-0.332785 0.0547347 -0.00852057 
-0.129951 0.219948 -0.0155667 
-0.143542 0.252671 0.169474 
-0.00467079 -0.396597 0.364413 
-0.129309 -0.0924168 -0.0530934 
0.120773 0.118883 -0.000463183 
-0.156557 0.108967 -0.11283 
0.0288763 0.411323 0.158966 
0.0302163 -0.289052 -0.109223 
0.312212 -0.0687401 0.128806 
0.278399 0.0258333 -0.0511633 
0.180781 0.276172 0.00345332 
0.160215 0.322587 -0.127248 
0.345092 -0.334442 0.139137 
0.260974 -0.173057 -0.0351288 
0.416027 0.189246 -0.00666708 
0.416143 0.229555 -0.0981749 
0.449622 0.269557 0.204496 
-0.34826 -0.37373 0.145439 
-0.341542 -0.217978 -0.214361 
-0.447999 -0.0548538 -0.000649391 
-0.449795 0.121879 0.337031 
-0.296277 0.361471 0.0373754 
-0.0529391 -0.182363 -0.0482654 
-0.168068 -0.245629 0.0695696 
-0.233071 0.0346971 -0.015613 
-0.222526 0.238586 0.253159 
-0.210221 0.403875 0.13149 
0.207687 -0.0298344 -0.0199571 
-0.00408081 -0.0831014 -0.136422 
-0.126134 -0.0518709 0.370414 
0.0487898 0.249414 0.17478 
-0.0727883 0.367285 0.216967 
0.306596 -0.441882 0.116533 
0.340814 -0.216834 0.227219 
0.184903 0.0457923 -0.103237 
0.237954 0.280269 0.0646459 
0.230434 0.45 0.0378522 
0.443534 -0.156786 0.0669411 
0.234651 0.198571 0.31055 
0.449342 0.092129 0.0267916 
0.426672 0.16912 0.0909072 
0.402286 0.38474 0.191097 
-0.408962 -0.407498 0.203111 
-0.442501 -0.279741 0.313327 
-0.203099 -0.034924 0.0415442 
-0.408971 0.263828 0.0141241 
-0.394979 0.367301 0.0572142 
-0.200487 -0.390355 0.175867 
-0.262755 -0.0114357 0.419937 
-0.0575772 0.00781037 -0.0386454 
-0.301711 0.16908 -0.027951 
-0.27077 0.399254 0.219424 
0.15251 -0.421935 0.128205 
0.0752035 -0.127342 0.0151039 
0.0557816 0.0431123 0.0177044 
-0.0878308 0.161425 0.305904 
-0.0515354 0.44513 0.304556 
0.303694 -0.397823 0.286317 
0.206363 -0.109049 0.243606 
0.115652 0.160717 0.0967034 
0.269 0.160714 0.435414 
0.160487 0.416761 -0.0258878 
0.409136 -0.449982 0.117019 
0.351008 -0.186026 0.116602 
0.0501312 -0.0760537 0.439509 
0.398373 0.192305 0.187339 
0.373949 0.445725 0.274223 
-0.448936 -0.450731 0.257077 
-0.391269 0.0402757 0.314149 
-0.416475 0.000284816 0.0796516 
-0.413089 0.180506 0.0692824 
-0.449996 0.414429 0.126355 
-0.301901 -0.422175 0.215502 
-0.232241 -0.188377 0.247253 
-0.204084 0.0121067 0.130477 
-0.368791 0.102197 0.407767 
-0.360783 0.444784 0.397834 
0.104073 -0.390499 0.38276 
-0.0359122 -0.164931 0.051958 
-0.071063 0.0796703 0.152093 
0.0373156 0.303672 0.11924 
0.013919 0.329795 0.308434 
0.198355 -0.24223 -0.00849083 
0.180634 -0.194594 0.348428 
0.233703 -0.00930104 0.16327 
0.202455 0.172997 0.0586719 
0.0872619 0.420462 0.0421072 
0.403864 -0.390733 0.197422 
0.431764 -0.176415 0.177517 
0.350845 0.00541424 0.188054 
0.353737 0.185926 0.304925 
0.446861 0.350493 0.298711 
-0.392694 -0.382017 0.32071 
-0.253114 -0.12875 0.375075 
-0.418298 -0.0136047 0.439004 
-0.394914 0.205794 0.366806 
-0.38755 0.406728 0.237952 
-0.209192 -0.320165 0.26462 
-0.205202 -0.216011 0.390993 
-0.162349 -0.000111951 0.276385 
-0.314699 0.207131 0.408671 
-0.205894 0.289278 0.324842 
-0.0202324 -0.19291 0.376829 
0.0045351 -0.218569 0.128412 
-0.00360232 -0.00360232 0.19651 
0.104656 0.0614985 0.406377 
-0.00484826 0.429073 0.368486 
0.202624 -0.398281 0.340958 
0.432237 -0.287037 0.384069 
0.276573 0.0102627 0.352472 
0.144147 0.246665 0.311896 
0.196913 0.396913 0.197026 
0.395947 -0.402982 0.296357 
0.449912 -0.181532 0.399444 
0.39722 -0.00351248 0.283689 
0.375885 0.166685 0.441911 
0.345347 0.419861 0.375565 
VERTICES 500 1000
1 0
1 1
1 2
1 3
1 4
1 5
1 6
1 7
1 8
1 9
1 10
1 11
1 12
1 13
1 14
1 15
1 16
1 17
1 18
1 19
1 20
1 21
1 22
1 23
1 24
1 25
1 26
1 27
1 28
1 29
1 30
1 31
1 32
1 33
1 34
1 35
1 36
1 37
1 38
1 39
1 40
1 41
1 42
1 43
1 44
1 45
1 46
1 47
1 48
1 49
1 50
1 51
1 52
1 53
1 54
1 55
1 56
1 57
1 58
1 59
1 60
1 61
1 62
1 63
1 64
1 65
1 66
1 67
1 68
1 69
1 70
1 71
1 72
1 73
1 74
1 75
1 76
1 77
1 78
1 79
1 80
1 81
1 82
1 83
1 84
1 85
1 86
1 87
1 88
1 89
1 90
1 91
1 92
1 93
1 94
1 95
1 96
1 97
1 98
1 99
1 100
1 101
1 102
1 103
1 104
1 105
1 106
1 107
1 108
1 109
1 110
1 111
1 112
1 113
1 114
1 115
1 116
1 117
1 118
1 119
1 120
1 121
1 122
1 123
1 124
1 125
1 126
1 127
1 128
1 129
1 130
1 131
1 132
1 133
1 134
1 135
1 136
1 137
1 138
1 139
1 140
1 141
1 142
1 143
1 144
1 145
1 146
1 147
1 148
1 149
1 150
1 151
1 152
1 153
1 154
1 155
1 156
1 157
1 158
1 159
1 160
1 161
1 162
1 163
1 164
1 165
1 166
1 167
1 168
1 169
1 170
1 171
1 172
1 173
1 174
1 175
1 176
1 177
1 178
1 179
1 180
1 181
1 182
1 183
1 184
1 185
1 186
1 187
1 188
1 189
1 190
1 191
1 192
1 193
1 194
1 195
1 196
1 197
1 198
1 199
1 200
1 201
1 202
1 203
1 204
1 205
1 206
1 207
1 208
1 209
1 210
1 211
1 212
1 213
1 214
1 215
1 216
1 217
1 218
1 219
1 220
1 221
1 222
1 223
1 224
1 225
1 226
1 227
1 228
1 229
1 230
1 231
1 232
1 233
1 234
1 235
1 236
1 237
1 238
1 239
1 240
1 241
1 242
1 243
1 244
1 245
1 246
1 247
1 248
1 249
1 250
1 251
1 252
1 253
1 254
1 255
1 256
1 257
1 258
1 259
1 260
1 261
1 262
1 263
1 264
1 265
1 266
1 267
1 268
1 269
1 270
1 271
1 272
1 273
1 274
1 275
1 276
1 277
1 278
1 279
1 280
1 281
1 282
1 283
1 284
1 285
1 286
1 287
1 288
1 289
1 290
1 291
1 292
1 293
1 294
1 295
1 296
1 297
1 298
1 299
1 300
1 301
1 302
1 303
1 304
1 305
1 306
1 307
1 308
1 309
1 310
1 311
1 312
1 313
1 314
1 315
1 316
1 317
1 318
1 319
1 320
1 321
1 322
1 323
1 324
1 325
1 326
1 327
1 328
1 329
1 330
1 331
1 332
1 333
1 334
1 335
1 336
1 337
1 338
1 339
1 340
1 341
1 342
1 343
1 344
1 345
1 346
1 347
1 348
1 349
1 350
1 351
1 352
1 353
1 354
1 355
1 356
1 357
1 358
1 359
1 360
1 361
1 362
1 363
1 364
1 365
1 366
1 367
1 368
1 369
1 370
1 371
1 372
1 373
1 374
1 375
1 376
1 377
1 378
1 379
1 380
1 381
1 382
1 383
1 384
1 385
1 386
1 387
1 388
1 389
1 390
1 391
1 392
1 393
1 394
1 395
1 396
1 397
1 398
1 399
1 400
1 401
1 402
1 403
1 404
1 405
1 406
1 407
1 408
1 409
1 410
1 411
1 412
1 413
1 414
1 415
1 416
1 417
1 418
1 419
1 420
1 421
1 422
1 423
1 424
1 425
1 426
1 427
1 428
1 429
1 430
1 431
1 432
1 433
1 434
1 435
1 436
1 437
1 438
1 439
1 440
1 441
1 442
1 443
1 444
1 445
1 446
1 447
1 448
1 449
1 450
1 451
1 452
1 453
1 454
1 455
1 456
1 457
1 458
1 459
1 460
1 461
1 462
1 463
1 464
1 465
1 466
1 467
1 468
1 469
1 470
1 471
1 472
1 473
1 474
1 475
1 476
1 477
1 478
1 479
1 480
1 481
1 482
1 483
1 484
1 485
1 486
1 487
1 488
1 489
1 490
1 491
1 492
1 493
1 494
1 495
1 496
1 497
1 498
1 499
POINT_DATA 500
SCALARS id int 1
LOOKUP_TABLE default
0
1
2
3
4
5
6
7
8
9
10
11
12
13
14
15
16
17
18
19
20
21
22
23
24
25
26
27
28
29
30
31
32
33
34
35
36
37
38
39
40
41
42
43
44
45
46
47
48
49
50
51
52
53
54
55
56
57
58
59
60
61
62
63
64
65
66
67
68
69
70
71
72
73
74
75
76
77
78
79
80
81
82
83
84
85
86
87
88
89
90
91
92
93
94
95
96
97
98
99
100
101
102
103
104
105
106
107
108
109
110
111
112
113
114
115
116
117
118
119
120
121
122
123
124
125
126
127
128
129
130
131
132
133
134
135
136
137
138
139
140
141
142
143
144
145
146
147
148
149
150
151
152
153
154
155
156
157
158
159
160
161
162
163
164
165
166
167
168
169
170
171
172
173
174
175
176
177
178
179
180
181
182
183
184
185
186
187
188
189
190
191
192
193
194
195
196
197
198
199
200
201
202
203
204
205
206
207
208
209
210
211
212
213
214
215
216
217
218
219
220
221
222
223
224
225
226
227
228
229
230
231
232
233
234
235
236
237
238
239
240
241
242
243
244
245
246
247
248
249
250
251
252
253
254
255
256
257
258
259
260
261
262
263
264
265
266
267
268
269
270
271
272
273
274
275
276
277
278
279
280
281
282
283
284
285
286
287
288
289
290
291
292
293
294
295
296
297
298
299
300
301
302
303
304
305
306
307
308
309
310
311
312
313
314
315
316
317
318
319
320
321
322
323
324
325
326
327
328
329
330
331
332
333
334
335
336
337
338
339
340
341
342
343
344
345
346
347
348
349
350
351
352
353
354
355
356
357
358
359
360
361
362
363
364
365
366
367
368
369
370
371
372
373
374
375
376
377
378
379
380
381
382
383
384
385
386
387
388
389
390
391
392
393
394
395
396
397
398
399
400
401
402
403
404
405
406
407
408
409
410
411
412
413
414
415
416
417
418
419
420
421
422
423
424
425
426
427
428
429
430
431
432
433
434
435
436
437
438
439
440
441
442
443
444
445
446
447
448
449
450
451
452
453
454
455
456
457
458
459
460
461
462
463
464
465
466
467
468
469
470
471
472
473
474
475
476
477
478
479
480
481
482
483
484
485
486
487
488
489
490
491
492
493
494
495
496
497
498
499
SCALARS type int 1
LOOKUP_TABLE default
0
0
0
0
0
0
0
0
0
0
0
0
0
0
0
0
0
0
0
0
0
0
0
0
0
0
0
0
0
0
0
0
0
0
0
0
0
0
0
0
0
0
0
0
0
0
0
0
0
0
0
0
0
0
0
0
0
0
0
0
0
0
0
0
0
0
0
0
0
0
0
0
0
0
0
0
0
0
0
0
0
0
0
0
0
0
0
0
0
0
0
0
0
0
0
0
0
0
0
0
0
0
0
0
0
0
0
0
0
0
0
0
0
0
0
0
0
0
0
0
0
0
0
0
0
0
0
0
0
0
0
0
0
0
0
0
0
0
0
0
0
0
0
0
0
0
0
0
0
0
0
0
0
0
0
0
0
0
0
0
0
0
0
0
0
0
0
0
0
0
0
0
0
0
0
0
0
0
0
0
0
0
0
0
0
0
0
0
0
0
0
0
0
0
0
0
0
0
0
0
0
0
0
0
0
0
0
0
0
0
0
0
0
0
0
0
0
0
0
0
0
0
0
0
0
0
0
0
0
0
0
0
0
0
0
0
0
0
0
0
0
0
0
0
0
0
0
0
0
0
0
0
0
0
0
0
0
0
0
0
0
0
0
0
0
0
0
0
0
0
0
0
0
0
0
0
0
0
0
0
0
0
0
0
0
0
0
0
0
0
0
0
0
0
0
0
0
0
0
0
0
0
0
0
0
0
0
0
0
0
0
0
0
0
0
0
0
0
0
0
0
0
0
0
0
0
0
0
0
0
0
0
0
0
0
0
0
0
0
0
0
0
0
0
0
0
0
0
0
0
0
0
0
0
0
0
0
0
0
0
0
0
0
0
0
0
0
0
0
0
0
0
0
0
0
0
0
0
0
0
0
0
0
0
0
0
0
0
0
0
0
0
0
0
0
0
0
0
0
0
0
0
0
0
0
0
0
0
0
0
0
0
0
0
0
0
0
0
0
0
0
0
0
0
0
0
0
0
0
0
0
0
0
0
0
0
0
0
0
0
0
0
0
0
0
0
0
0
0
0
0
0
0
0
0
0
0
0
0
0
0
0
0
0
0
0
0
0
0
0
0
0
0
0
0
0
0
0
0
0
0
0
0
0
0
0
0
0
0
0
0
0
0
0
0
0
0
0
0
0
SCALARS damp_viscous double 1
LOOKUP_TABLE default
0
0
0
0
0
0
0
0
0
0
0
0
0
0
0
0
0
0
0
0
0
0
0
0
0
0
0
0
0
0
0
0
0
0
0
0
0
0
0
0
0
0
0
0
0
0
0
0
0
0
0
0
0
0
0
0
0
0
0
0
0
0
0
0
0
0
0
0
0
0
0
0
0
0
0
0
0
0
0
0
0
0
0
0
0
0
0
0
0
0
0
0
0
0
0
0
0
0
0
0
0
0
0
0
0
0
0
0
0
0
0
0
0
0
0
0
0
0
0
0
0
0
0
0
0
0
0
0
0
0
0
0
0
0
0
0
0
0
0
0
0
0
0
0
0
0
0
0
0
0
0
0
0
0
0
0
0
0
0
0
0
0
0
0
0
0
0
0
0
0
0
0
0
0
0
0
0
0
0
0
0
0
0
0
0
0
0
0
0
0
0
0
0
0
0
0
0
0
0
0
0
0
0
0
0
0
0
0
0
0
0
0
0
0
0
0
0
0
0
0
0
0
0
0
0
0
0
0
0
0
0
0
0
0
0
0
0
0
0
0
0
0
0
0
0
0
0
0
0
0
0
0
0
0
0
0
0
0
0
0
0
0
0
0
0
0
0
0
0
0
0
0
0
0
0
0
0
0
0
0
0
0
0
0
0
0
0
0
0
0
0
0
0
0
0
0
0
0
0
0
0
0
0
0
0
0
0
0
0
0
0
0
0
0
0
0
0
0
0
0
0
0
0
0
0
0
0
0
0
0
0
0
0
0
0
0
0
0
0
0
0
0
0
0
0
0
0
0
0
0
0
0
0
0
0
0
0
0
0
0
0
0
0
0
0
0
0
0
0
0
0
0
0
0
0
0
0
0
0
0
0
0
0
0
0
0
0
0
0
0
0
0
0
0
0
0
0
0
0
0
0
0
0
0
0
0
0
0
0
0
0
0
0
0
0
0
0
0
0
0
0
0
0
0
0
0
0
0
0
0
0
0
0
0
0
0
0
0
0
0
0
0
0
0
0
0
0
0
0
0
0
0
0
0
0
0
0
0
0
0
0
0
0
0
0
0
0
0
0
0
0
0
0
0
0
0
0
0
0
0
0
0
0
0
0
0
0
0
0
0
0
0
0
0
0
0
0
0
0
0
SCALARS damp_numerical double 1
LOOKUP_TABLE default
0.5
0.5
0.5
0.5
0.5
0.5
0.5
0.5
0.5
0.5
0.5
0.5
0.5
0.5
0.5
0.5
0.5
0.5
0.5
0.5
0.5
0.5
0.5
0.5
0.5
0.5
0.5
0.5
0.5
0.5
0.5
0.5
0.5
0.5
0.5
0.5
0.5
0.5
0.5
0.5
0.5
0.5
0.5
0.5
0.5
0.5
0.5
0.5
0.5
0.5
0.5
0.5
0.5
0.5
0.5
0.5
0.5
0.5
0.5
0.5
0.5
0.5
0.5
0.5
0.5
0.5
0.5
0.5
0.5
0.5
0.5
0.5
0.5
0.5
0.5
0.5
0.5
0.5
0.5
0.5
0.5
0.5
0.5
0.5
0.5
0.5
0.5
0.5
0.5
0.5
0.5
0.5
0.5
0.5
0.5
0.5
0.5
0.5
0.5
0.5
0.5
0.5
0.5
0.5
0.5
0.5
0.5
0.5
0.5
0.5
0.5
0.5
0.5
0.5
0.5
0.5
0.5
0.5
0.5
0.5
0.5
0.5
0.5
0.5
0.5
0.5
0.5
0.5
0.5
0.5
0.5
0.5
0.5
0.5
0.5
0.5
0.5
0.5
0.5
0.5
0.5
0.5
0.5
0.5
0.5
0.5
0.5
0.5
0.5
0.5
0.5
0.5
0.5
0.5
0.5
0.5
0.5
0.5
0.5
0.5
0.5
0.5
0.5
0.5
0.5
0.5
0.5
0.5
0.5
0.5
0.5
0.5
0.5
0.5
0.5
0.5
0.5
0.5
0.5
0.5
0.5
0.5
0.5
0.5
0.5
0.5
0.5
0.5
0.5
0.5
0.5
0.5
0.5
0.5
0.5
0.5
0.5
0.5
0.5
0.5
0.5
0.5
0.5
0.5
0.5
0.5
0.5
0.5
0.5
0.5
0.5
0.5
0.5
0.5
0.5
0.5
0.5
0.5
0.5
0.5
0.5
0.5
0.5
0.5
0.5
0.5
0.5
0.5
0.5
0.5
0.5
0.5
0.5
0.5
0.5
0.5
0.5
0.5
0.5
0.5
0.5
0.5
0.5
0.5
0.5
0.5
0.5
0.5
0.5
0.5
0.5
0.5
0.5
0.5
0.5
0.5
0.5
0.5
0.5
0.5
0.5
0.5
0.5
0.5
0.5
0.5
0.5
0.5
0.5
0.5
0.5
0.5
0.5
0.5
0.5
0.5
0.5
0.5
0.5
0.5
0.5
0.5
0.5
0.5
0.5
0.5
0.5
0.5
0.5
0.5
0.5
0.5
0.5
0.5
0.5
0.5
0.5
0.5
0.5
0.5
0.5
0.5
0.5
0.5
0.5
0.5
0.5
0.5
0.5
0.5
0.5
0.5
0.5
0.5
0.5
0.5
0.5
0.5
0.5
0.5
0.5
0.5
0.5
0.5
0.5
0.5
0.5
0.5
0.5
0.5
0.5
0.5
0.5
0.5
0.5
0.5
0.5
0.5
0.5
0.5
0.5
0.5
0.5
0.5
0.5
0.5
0.5
0.5
0.5
0.5
0.5
0.5
0.5
0.5
0.5
0.5
0.5
0.5
0.5
0.5
0.5
0.5
0.5
0.5
0.5
0.5
0.5
0.5
0.5
0.5
0.5
0.5
0.5
0.5
0.5
0.5
0.5
0.5
0.5
0.5
0.5
0.5
0.5
0.5
0.5
0.5
0.5
0.5
0.5
0.5
0.5
0.5
0.5
0.5
0.5
0.5
0.5
0.5
0.5
0.5
0.5
0.5
0.5
0.5
0.5
0.5
0.5
0.5
0.5
0.5
0.5
0.5
0.5
0.5
0.5
0.5
0.5
0.5
0.5
0.5
0.5
0.5
0.5
0.5
0.5
0.5
0.5
0.5
0.5
0.5
0.5
0.5
0.5
0.5
0.5
0.5
0.5
0.5
0.5
0.5
0.5
0.5
0.5
0.5
0.5
0.5
0.5
0.5
0.5
0.5
0.5
0.5
0.5
0.5
0.5
0.5
0.5
0.5
0.5
0.5
0.5
0.5
0.5
0.5
0.5
0.5
0.5
0.5
0.5
0.5
0.5
0.5
0.5
0.5
0.5
0.5
0.5
0.5
0.5
0.5
0.5
0.5
0.5
0.5
0.5
0.5
0.5
0.5
0.5
0.5
0.5
0.5
0.5
0.5
0.5
0.5
0.5
0.5
0.5
0.5
SCALARS quat double 4
LOOKUP_TABLE default
0.96595 0.0745498 -0.0477518 0.243112 
0.741386 0.239647 0.62203 0.0774273 
0.987406 0.086142 -0.105549 -0.0804294 
-0.393766 -0.465498 -0.58054 -0.53966 
0.0697687 0.641214 -0.365743 0.670976 
0.797628 -0.270621 -0.203632 0.499087 
0.217308 -0.384381 -0.17739 0.879523 
0.891736 0.0255187 0.31277 0.326084 
-0.117812 0.44839 0.886028 0.00466055 
0.138183 0.0891714 -0.0208068 0.986165 
0.90506 -0.161475 -0.109389 0.377924 
0.195204 -0.89034 -0.321045 -0.257138 
0.0906909 0.377923 -0.00639404 0.921362 
0.589243 0.725852 0.345063 -0.0828453 
0.349361 0.815033 -0.14184 0.439944 
0.995947 0.0819435 -0.0364036 -0.00698247 
0.643284 0.0465372 -0.041785 0.763068 
0.982052 0.0849889 -0.0198879 0.1672 
0.968936 0.114458 -0.0880632 0.200769 
-0.823373 0.148154 0.544139 0.0634128 
0.841515 0.101775 0.507396 -0.155061 
-0.330782 0.826777 -0.309094 0.333893 
0.805168 -0.209842 -0.503479 -0.232767 
0.569464 0.728455 -0.356928 -0.132917 
0.984441 0.104673 -0.0986512 0.100934 
0.946132 0.161974 -0.164621 0.226934 
-0.204663 0.90085 0.0385829 0.380912 
0.981165 0.167592 -0.051101 -0.0813412 
0.51565 -0.441456 -0.477846 0.55757 
-0.208258 0.391017 -0.33076 0.833266 
0.727238 0.372227 0.506539 0.275661 
0.487749 -0.524131 -0.1741 -0.676075 
0.0588479 -0.0482927 -0.971005 0.226615 
0.175183 0.0877202 -0.0252312 0.980296 
0.558606 0.702275 0.207321 -0.389598 
0.335563 -0.132498 0.103114 0.926935 
-0.328362 0.433429 -0.46269 0.700168 
0.218145 0.368793 0.263637 0.864234 
0.719864 -0.644676 -0.254181 0.0397646 
0.563214 0.659115 -0.0875941 -0.490595 
0.947237 0.163784 -0.152916 0.229202 
0.694152 0.184297 -0.114064 0.686424 
0.981847 -0.18442 -0.0286528 0.0338213 
0.0210014 0.819203 0.556061 -0.138786 
0.681612 -0.568333 -0.387671 -0.249229 
0.4039 0.241903 -0.744463 0.473416 
0.55219 -0.191316 0.161406 -0.795256 
-0.944878 0.21988 -0.138359 0.199289 
0.425643 0.768812 -0.376927 0.292715 
-0.835407 0.511647 0.111457 -0.167004 
0.924561 0.307593 -0.211222 -0.0771958 
0.315099 -0.103611 0.931467 -0.14949 
0.825154 -0.0377138 0.563646 -0.00156959 
-0.688558 0.414314 -0.592754 -0.0536107 
-0.478709 0.64784 0.37559 -0.458338 
-0.616567 0.463577 0.492464 -0.403014 
0.10381 0.180549 0.964227 -0.163986 
0.188958 -0.0714934 -0.796478 -0.569918 
-0.1782 -0.00539064 0.782446 -0.596653 
0.308479 -0.928321 -0.206884 0.0161326 
-0.466367 0.251071 0.647638 -0.547751 
-0.803238 -0.00751993 0.194135 0.563084 
-0.256533 -0.684076 0.113371 0.673334 
0.00614185 0.247674 0.964524 0.0911747 
-0.102173 0.0367354 0.992753 -0.0515032 
0.922313 0.248299 -0.257068 -0.146981 
-0.163127 -0.948711 -0.158682 0.219446 
0.969691 -0.140438 -0.129534 0.152305 
0.897609 -0.0182015 0.405398 -0.1721 
-0.906751 -0.128652 -0.145769 -0.374168 
0.460768 -0.42372 -0.612192 0.483089 
-0.552616 -0.746365 -0.360326 -0.0878655 
0.360911 0.340683 0.0273769 -0.867715 
-0.544132 0.778903 -0.295686 -0.0989958 
0.950626 -0.234713 0.0141166 -0.202535 
0.960948 0.127126 -0.126221 -0.210916 
0.503614 -0.104817 -0.595836 0.616738 
0.884236 -0.214582 0.403376 -0.0967965 
-0.517111 -0.178954 -0.112798 0.829366 
-0.58681 0.138833 -0.153078 -0.782909 
0.882885 0.281938 -0.0345504 -0.373941 
-0.442674 0.852149 0.0195517 0.278388 
0.961673 -0.0557641 0.26095 -0.063098 
-0.244299 0.811939 -0.270768 0.455805 
0.994532 -0.0975225 -0.000984811 -0.0373531 
0.79851 -0.422318 -0.396963 0.162634 
-0.278738 -0.369731 0.0529651 -0.884759 
0.613273 0.610407 0.485611 -0.124425 
0.318405 0.919575 0.0773932 -0.216818 
-0.174981 0.542369 -0.625087 0.53337 
0.878587 -0.23127 0.294429 -0.296498 
-0.803928 0.459128 -0.375015 0.0475881 
0.903914 -0.0440534 -0.358783 0.228633 
0.876971 -0.281678 0.384581 0.0606361 
0.798469 -0.0607523 0.441393 -0.404881 
0.470674 -0.609497 -0.169669 -0.614973 
0.322956 -0.787849 0.476339 0.219304 
0.29436 -0.0771561 -0.729582 0.612462 
-0.632885 0.583017 0.037303 -0.508091 
0.988649 -0.0495901 -0.0478969 -0.133489 
0.856071 -0.0711824 -0.11761 -0.498241 
0.283791 0.574168 0.696742 0.323024 
-0.00537109 0.426611 -0.90416 0.0216604 
-0.669041 -0.592461 -0.427665 -0.135925 
-0.653314 -0.383208 -0.502647 -0.416748 
0.928089 -0.170634 0.288441 0.162284 
-0.509063 0.613085 0.106881 -0.594607 
0.0486899 0.669337 0.729464 -0.132288 
0.819741 0.392054 -0.0899557 -0.40771 
0.00974362 0.196231 -0.977974 0.0704664 
0.26989 -0.638095 -0.245533 0.678018 
-0.510871 -0.310959 0.549513 0.583395 
-0.0725274 -0.486807 0.320375 -0.809394 
0.811562 -0.262852 0.49625 0.161282 
-0.223483 0.0780793 0.108692 0.965477 
0.948208 -0.169444 0.255896 0.0819037 
0.00872834 -0.887615 0.455698 -0.0663516 
0.475656 -0.0643878 -0.386259 0.787661 
0.88717 0.0854059 0.0960264 0.443186 
0.277608 0.134954 -0.796066 0.520577 
0.0668524 0.0944938 0.48148 -0.86878 
-0.127867 -0.266019 -0.684893 0.666187 
0.358914 -0.441175 -0.413709 -0.710908 
-0.937976 -0.232954 -0.168049 0.194147 
0.788346 -0.545705 0.0848284 0.271147 
0.784388 0.285599 -0.529508 -0.150967 
0.459917 0.617932 0.523065 -0.364745 
0.536769 0.280567 0.163512 -0.778733 
-0.686159 0.192924 0.677403 -0.181911 
0.470503 -0.364507 0.726161 0.344169 
-0.00592474 0.488111 0.726696 -0.483349 
-0.906995 0.102991 -0.138405 0.384183 
-0.00912149 -0.474931 -0.872985 0.110702 
0.221511 0.199343 -0.946278 0.125511 
0.178207 -0.881754 0.270399 0.342982 
0.295944 -0.239748 0.691135 0.614223 
0.2799 0.732807 0.233354 0.574627 
-0.719622 -0.692899 0.0282265 -0.0351959 
0.332956 0.89521 -0.188743 -0.228288 
-0.00803844 0.799014 -0.601249 0.00337423 
-0.642063 0.0880932 -0.761232 0.0228116 
0.458775 -0.230383 0.365454 0.776462 
-0.100546 0.528975 -0.0473139 0.841331 
0.952335 -0.213284 -0.171384 0.134891 
0.0388043 -0.536413 -0.764424 -0.355543 
-0.50899 -0.819304 0.225361 0.137415 
0.741087 -0.509001 0.351934 -0.260481 
0.286573 -0.567724 0.159127 -0.755145 
-0.120635 -0.565131 -0.101686 -0.809774 