# vtk DataFile Version 2.0
Generated by NetDEM
ASCII 
DATASET POLYDATA
POINTS 325 double
-0.416545 -0.405849 -0.462206 
-0.403333 -0.203333 -0.471418 
-0.408436 -0.007478 -0.462903 
-0.449938 0.145778 -0.450007 
-0.402763 0.397237 -0.471418 
-0.264689 -0.431033 -0.458966 
-0.203538 -0.203538 -0.471418 
-0.203218 -0.00321788 -0.471417 
-0.168406 0.200592 -0.462874 
-0.24679 0.369117 -0.465 
-0.0434731 -0.400609 -0.458475 
-0.0036726 -0.203668 -0.471374 
-0.00360232 -0.00360232 -0.471418 
0.0314396 0.187695 -0.453427 
-0.0418188 0.396522 -0.463951 
0.191777 -0.400234 -0.463161 
0.170652 -0.20745 -0.462272 
0.173368 -0.00960018 -0.462127 
0.159354 0.210264 -0.465044 
0.313485 0.418456 -0.400002 
0.402481 -0.400684 -0.450023 
0.407279 -0.29714 -0.450033 
0.352577 -0.0159015 -0.45001 
0.38472 0.093593 -0.450011 
0.370163 0.438748 -0.464941 
-0.405057 -0.400261 -0.382859 
-0.403333 -0.203333 -0.392815 
-0.397692 -0.00739391 -0.386353 
-0.449512 0.174691 -0.328268 
-0.402763 0.397237 -0.392815 
-0.307354 -0.409249 -0.39026 
-0.203538 -0.203538 -0.392815 
-0.203218 -0.00321788 -0.392814 
-0.301664 0.160801 -0.465044 
-0.157565 0.419705 -0.447076 
-0.0635782 -0.404685 -0.384094 
-0.0036726 -0.20367 -0.392714 
-0.00360232 -0.00360232 -0.392815 
0.00624251 0.25723 -0.446515 
0.0482061 0.346763 -0.441463 
0.198148 -0.401456 -0.38649 
0.170976 -0.186 -0.386724 
0.186899 -0.00848437 -0.382558 
0.197367 0.112323 -0.45572 
0.305809 0.423213 -0.283271 
0.398561 -0.450001 -0.363124 
0.401694 -0.349445 -0.364165 
0.314155 -0.162791 -0.45002 
0.450015 0.139495 -0.389775 
0.424917 0.34315 -0.453916 
-0.406317 -0.405146 -0.303523 
-0.403333 -0.203333 -0.314214 
-0.360723 0.00956062 -0.314272 
-0.196979 0.295199 -0.393982 
-0.402763 0.397237 -0.314213 
-0.180243 -0.367983 -0.453655 
-0.203538 -0.203538 -0.314214 
-0.203218 -0.00321788 -0.314212 
-0.17021 0.189641 -0.382197 
-0.216052 0.453605 -0.391097 
0.0283557 -0.430365 -0.351501 
-0.00360578 -0.203702 -0.31403 
-0.00360232 -0.00360232 -0.314214 
-0.0396969 0.259522 -0.367725 
0.239564 0.351129 -0.458544 
0.189545 -0.403951 -0.31134 
0.113108 -0.132087 -0.340974 
0.189185 0.0120843 -0.309451 
0.27461 0.0662568 -0.443507 
0.0761888 0.236578 -0.367418 
0.363905 -0.431455 -0.270229 
0.399821 -0.202863 -0.417587 
0.383753 -0.0804209 -0.380265 
0.449876 0.235428 -0.361614 
0.438965 0.259783 -0.45703 
-0.421339 -0.413069 -0.227916 
-0.403333 -0.203333 -0.235618 
-0.342582 0.0286452 -0.242041 
-0.222287 0.218684 -0.311548 
-0.402763 0.397237 -0.235617 
-0.1499 -0.434354 -0.379268 
-0.203538 -0.203538 -0.235618 
-0.203218 -0.00321788 -0.235614 
-0.095712 0.167723 -0.396807 
-0.293535 0.445245 -0.337246 
0.0970131 -0.440031 -0.290471 
-0.00375914 -0.203609 -0.235284 
-0.00360232 -0.00360232 -0.235618 
0.0195828 0.115573 -0.390612 
0.0374538 0.451166 -0.440958 
0.221057 -0.406508 -0.222536 
0.176693 -0.232834 -0.315522 
0.190762 0.013464 -0.23609 
0.254989 0.176544 -0.429921 
0.147884 0.425727 -0.422634 
0.379618 -0.323047 -0.270281 
0.44997 -0.102149 -0.307332 
0.406074 0.165964 -0.303947 
0.314947 0.318481 -0.386817 
0.424546 0.36955 -0.359825 
-0.425748 -0.417268 -0.137748 
-0.403333 -0.203333 -0.15703 
-0.380836 0.00398456 -0.161467 
-0.410601 0.179286 -0.219015 
-0.402763 0.397237 -0.157029 
-0.243195 -0.404481 -0.33426 
-0.203538 -0.203538 -0.15703 
-0.203218 -0.00321788 -0.157025 
-0.132148 0.140459 -0.293913 
-0.296121 0.347349 -0.356025 
0.0393967 -0.370025 -0.279964 
-0.00430721 -0.203408 -0.156376 
-0.00360232 -0.00360232 -0.15703 
-0.0299583 0.212577 -0.300092 
-0.101707 0.444673 -0.369081 
0.223649 -0.397822 -0.151191 
0.248053 -0.3012 -0.246464 
0.180628 0.00713999 -0.163159 
0.214744 0.221372 -0.365681 
0.366019 0.449611 -0.19853 
0.368035 -0.401378 -0.174184 
0.450018 -0.211622 -0.331574 
0.42442 0.0361924 -0.378396 
0.326712 0.234653 -0.332022 
0.399252 0.453192 -0.335142 
-0.432234 -0.420003 -0.0631305 
-0.403333 -0.203333 -0.0784507 
-0.457992 -0.0159456 -0.149864 
-0.229701 0.208376 -0.19228 
-0.402763 0.397237 -0.0784495 
-0.161392 -0.417869 -0.284048 
-0.203538 -0.203538 -0.078451 
-0.203218 -0.00321788 -0.0784453 
-0.105678 0.178506 -0.219962 
-0.199319 0.346083 -0.306286 
-0.060514 -0.353527 -0.300572 
-0.00163059 -0.204662 -0.0771279 
-0.00360232 -0.00360232 -0.0784509 
0.0166257 0.200445 -0.235455 
-0.109924 0.35176 -0.369502 
0.208348 -0.399025 -0.0687761 
0.220558 -0.227538 -0.191938 
0.178768 -0.000792925 -0.0824728 
0.195902 0.294155 -0.293838 
0.180907 0.391166 -0.334691 
0.40253 -0.448361 -0.0909527 
0.389677 -0.160259 -0.251589 
0.340956 -0.050493 -0.29145 
0.449838 0.0746693 -0.275474 
0.43043 0.409025 -0.264575 
-0.417391 -0.420932 0.0318825 
-0.403333 -0.203333 0.000118368 
-0.4513 -0.034411 -0.0406196 
-0.224932 0.291897 -0.102237 
-0.402763 0.397237 0.000119589 
-0.123032 -0.393708 -0.198288 
-0.203538 -0.203538 0.000118077 
-0.203218 -0.00321788 0.000124587 
-0.125898 0.257201 -0.166927 
-0.211488 0.40152 -0.259317 
-0.0284233 -0.384014 -0.210498 
-0.00146694 -0.204225 0.00301758 
-0.00360232 -0.00360232 0.000118122 
0.0331432 0.189593 -0.16355 
-0.0440095 0.348501 -0.296319 
0.150473 -0.426488 -0.0226142 
0.183619 -0.1815 -0.129277 
0.190725 -0.00562044 -0.0035357 
0.203599 0.18053 -0.294215 
0.0593183 0.431882 -0.355261 
0.395781 -0.249022 -0.205023 
0.385954 -0.0969881 -0.173791 
0.353541 0.0410649 -0.251548 
0.398842 0.321568 -0.237773 
0.444579 0.383816 -0.167024 
-0.35511 -0.408188 0.104672 
-0.403333 -0.203333 0.0786783 
-0.412421 -0.00497902 0.0406048 
-0.44999 0.177354 -0.116315 
-0.402763 0.397237 0.0786795 
-0.239842 -0.395173 -0.201807 
-0.203538 -0.203538 0.078678 
-0.203218 -0.00321788 0.0786852 
-0.133762 0.195411 -0.0846331 
-0.175496 0.426897 -0.179515 
0.0328343 -0.426252 -0.165506 
-0.0178587 -0.197635 0.0830914 
-0.00360232 -0.00360232 0.0786781 
-0.042468 0.230163 -0.100131 
-0.0591484 0.441167 -0.226324 
0.15248 -0.419399 0.0806082 
0.175804 -0.171554 -0.0402271 
0.198319 -0.0134591 0.0688699 
0.208263 0.13721 -0.223118 
0.253806 0.448904 -0.201814 
0.400442 -0.315605 -0.130171 
0.407981 -0.199351 -0.117978 
0.380163 0.0538784 -0.151929 
0.352075 0.234148 -0.224751 
0.396448 0.434375 -0.111152 
-0.305144 -0.374341 0.160022 
-0.403333 -0.203333 0.157231 
-0.383737 0.0190338 0.12133 
-0.277959 0.128025 -0.140754 
-0.402763 0.397237 0.157232 
-0.218522 -0.406492 -0.111907 
-0.203538 -0.203538 0.157231 
-0.203218 -0.00321788 0.157238 
-0.157996 0.164922 0.00649226 
-0.211491 0.399203 -0.115932 
0.000888283 -0.401156 -0.0790032 
-0.00328903 -0.205748 0.165596 
-0.00360232 -0.00360232 0.157231 
-0.0165029 0.194125 -0.0155675 
-0.0180204 0.369515 -0.155236 
0.181672 -0.402856 0.151082 
0.199204 -0.189829 0.0437647 
0.195821 -0.0228708 0.142207 
0.183065 0.203206 -0.174573 
0.185584 0.368853 -0.229553 
0.399163 -0.416758 0.00458768 
0.399656 -0.269465 -0.0411425 
0.400394 -0.0354211 -0.0955369 
0.375679 0.135213 -0.213533 
0.398402 0.400406 -0.0416969 
-0.300038 -0.363566 0.234803 
-0.403333 -0.203333 0.471422 
-0.368087 0.0511563 0.195065 
-0.354752 0.243472 0.440408 
-0.402763 0.397237 0.471423 
-0.192134 -0.401965 -0.00654793 
-0.203538 -0.203538 0.471422 
-0.203218 -0.00321788 0.471425 
-0.192139 0.189954 0.0914889 
-0.205286 0.383256 -0.0240633 
-0.00372369 -0.400687 0.0168708 
-0.0135365 -0.201547 0.465114 
-0.00360232 -0.00360232 0.471422 
0.0184473 0.163552 0.0577347 
-0.0132159 0.383044 -0.0533328 
0.219499 -0.385848 0.216515 
0.209833 -0.290345 0.0752806 
0.195083 -0.0163643 0.224707 
0.201346 0.208875 -0.0802634 
0.187592 0.383467 0.442294 
0.396394 -0.409832 0.317853 
0.39668 -0.219428 0.309118 
0.365675 -0.0854502 0.438752 
0.385074 0.275109 0.443548 
0.395886 0.394215 0.0436969 
-0.394242 -0.392884 0.291707 
-0.403333 -0.203333 0.235779 
-0.382974 -0.0150317 0.284735 
-0.291466 0.220604 -0.0444973 
-0.402763 0.397237 0.23578 
-0.208088 -0.403151 0.0913063 
-0.203538 -0.203538 0.235778 
-0.203218 -0.00321788 0.235786 
-0.209014 0.203941 0.182923 
-0.202764 0.404206 0.0505208 
-0.00255051 -0.396952 0.110844 
0.0387189 -0.2198 0.241983 
-0.00360232 -0.00360232 0.235778 
-0.0179069 0.193316 0.129758 
-0.00167033 0.401113 0.0349312 
0.227888 -0.383335 0.293255 
0.238184 -0.174593 0.2403 
0.189622 0.00191791 0.295072 
0.194828 0.190197 0.0134047 
0.0555455 0.340905 -0.226176 
0.395719 -0.344397 0.0735168 
0.393869 -0.17931 0.00499992 
0.396118 0.0229526 -0.0136772 
0.416646 0.205816 -0.153004 
0.39742 0.390566 0.138117 
-0.451699 -0.450678 0.320232 
-0.403333 -0.203333 0.314325 
-0.43266 -0.046728 0.387539 
-0.449977 0.0796916 0.332199 
-0.402763 0.397237 0.314325 
-0.20113 -0.402969 0.209283 
-0.203538 -0.203538 0.314324 
-0.203218 -0.00321788 0.314331 
-0.210478 0.214487 0.322398 
-0.201752 0.393361 0.142392 
-0.00593033 -0.408742 0.202645 
-0.0104896 -0.197037 0.314079 
-0.00360232 -0.00360232 0.314324 
-0.00552042 0.197175 0.235778 
-0.00420336 0.39656 0.124518 
0.202998 -0.395504 0.375316 
0.179495 -0.253077 0.451129 
0.168256 0.000973168 0.367801 
0.196478 0.188739 0.107312 
0.0924681 0.193466 0.14335 
0.396104 -0.288927 0.159035 
0.396853 -0.207141 0.101441 
0.38358 -0.0785697 -0.00690385 
0.449615 0.212448 0.224985 
0.395788 0.399645 0.234594 
-0.443155 -0.405682 0.417756 
-0.403333 -0.203333 0.392872 
-0.390169 0.0089693 0.460298 
-0.422343 0.177202 0.244326 
-0.402763 0.397237 0.392872 
-0.203003 -0.403086 0.319915 
-0.203538 -0.203538 0.392871 
-0.203218 -0.00321788 0.392876 
-0.204747 0.187354 0.452017 
-0.203347 0.396653 0.29051 
-0.00305487 -0.402963 0.302008 
-0.057128 -0.185334 0.389835 
-0.00360232 -0.00360232 0.392871 
-0.000242165 0.197483 0.347368 
-0.00266816 0.397332 0.291188 
0.143414 -0.395589 0.451574 
0.0779486 -0.185654 0.333108 
0.191243 -0.0112844 0.450479 
0.197198 0.197198 0.291054 
0.246611 0.449842 0.324841 
0.397039 -0.397382 0.449074 
0.395126 -0.182291 0.439537 
0.350255 0.0333206 0.218722 
0.388592 0.219465 0.339672 
0.397596 0.395596 0.342822 
VERTICES 325 650
1 0
1 1
1 2
1 3
1 4
1 5
1 6
1 7
1 8
1 9
1 10
1 11
1 12
1 13
1 14
1 15
1 16
1 17
1 18
1 19
1 20
1 21
1 22
1 23
1 24
1 25
1 26
1 27
1 28
1 29
1 30
1 31
1 32
1 33
1 34
1 35
1 36
1 37
1 38
1 39
1 40
1 41
1 42
1 43
1 44
1 45
1 46
1 47
1 48
1 49
1 50
1 51
1 52
1 53
1 54
1 55
1 56
1 57
1 58
1 59
1 60
1 61
1 62
1 63
1 64
1 65
1 66
1 67
1 68
1 69
1 70
1 71
1 72
1 73
1 74
1 75
1 76
1 77
1 78
1 79
1 80
1 81
1 82
1 83
1 84
1 85
1 86
1 87
1 88
1 89
1 90
1 91
1 92
1 93
1 94
1 95
1 96
1 97
1 98
1 99
1 100
1 101
1 102
1 103
1 104
1 105
1 106
1 107
1 108
1 109
1 110
1 111
1 112
1 113
1 114
1 115
1 116
1 117
1 118
1 119
1 120
1 121
1 122
1 123
1 124
1 125
1 126
1 127
1 128
1 129
1 130
1 131
1 132
1 133
1 134
1 135
1 136
1 137
1 138
1 139
1 140
1 141
1 142
1 143
1 144
1 145
1 146
1 147
1 148
1 149
1 150
1 151
1 152
1 153
1 154
1 155
1 156
1 157
1 158
1 159
1 160
1 161
1 162
1 163
1 164
1 165
1 166
1 167
1 168
1 169
1 170
1 171
1 172
1 173
1 174
1 175
1 176
1 177
1 178
1 179
1 180
1 181
1 182
1 183
1 184
1 185
1 186
1 187
1 188
1 189
1 190
1 191
1 192
1 193
1 194
1 195
1 196
1 197
1 198
1 199
1 200
1 201
1 202
1 203
1 204
1 205
1 206
1 207
1 208
1 209
1 210
1 211
1 212
1 213
1 214
1 215
1 216
1 217
1 218
1 219
1 220
1 221
1 222
1 223
1 224
1 225
1 226
1 227
1 228
1 229
1 230
1 231
1 232
1 233
1 234
1 235
1 236
1 237
1 238
1 239
1 240
1 241
1 242
1 243
1 244
1 245
1 246
1 247
1 248
1 249
1 250
1 251
1 252
1 253
1 254
1 255
1 256
1 257
1 258
1 259
1 260
1 261
1 262
1 263
1 264
1 265
1 266
1 267
1 268
1 269
1 270
1 271
1 272
1 273
1 274
1 275
1 276
1 277
1 278
1 279
1 280
1 281
1 282
1 283
1 284
1 285
1 286
1 287
1 288
1 289
1 290
1 291
1 292
1 293
1 294
1 295
1 296
1 297
1 298
1 299
1 300
1 301
1 302
1 303
1 304
1 305
1 306
1 307
1 308
1 309
1 310
1 311
1 312
1 313
1 314
1 315
1 316
1 317
1 318
1 319
1 320
1 321
1 322
1 323
1 324
POINT_DATA 325
SCALARS id int 1
LOOKUP_TABLE default
0
1
2
3
4
5
6
7
8
9
10
11
12
13
14
15
16
17
18
19
20
21
22
23
24
25
26
27
28
29
30
31
32
33
34
35
36
37
38
39
40
41
42
43
44
45
46
47
48
49
50
51
52
53
54
55
56
57
58
59
60
61
62
63
64
65
66
67
68
69
70
71
72
73
74
75
76
77
78
79
80
81
82
83
84
85
86
87
88
89
90
91
92
93
94
95
96
97
98
99
100
101
102
103
104
105
106
107
108
109
110
111
112
113
114
115
116
117
118
119
120
121
122
123
124
125
126
127
128
129
130
131
132
133
134
135
136
137
138
139
140
141
142
143
144
145
146
147
148
149
150
151
152
153
154
155
156
157
158
159
160
161
162
163
164
165
166
167
168
169
170
171
172
173
174
175
176
177
178
179
180
181
182
183
184
185
186
187
188
189
190
191
192
193
194
195
196
197
198
199
200
201
202
203
204
205
206
207
208
209
210
211
212
213
214
215
216
217
218
219
220
221
222
223
224
225
226
227
228
229
230
231
232
233
234
235
236
237
238
239
240
241
242
243
244
245
246
247
248
249
250
251
252
253
254
255
256
257
258
259
260
261
262
263
264
265
266
267
268
269
270
271
272
273
274
275
276
277
278
279
280
281
282
283
284
285
286
287
288
289
290
291
292
293
294
295
296
297
298
299
300
301
302
303
304
305
306
307
308
309
310
311
312
313
314
315
316
317
318
319
320
321
322
323
324
SCALARS type int 1
LOOKUP_TABLE default
0
0
0
0
0
0
0
0
0
0
0
0
0
0
0
0
0
0
0
0
0
0
0
0
0
0
0
0
0
0
0
0
0
0
0
0
0
0
0
0
0
0
0
0
0
0
0
0
0
0
0
0
0
0
0
0
0
0
0
0
0
0
0
0
0
0
0
0
0
0
0
0
0
0
0
0
0
0
0
0
0
0
0
0
0
0
0
0
0
0
0
0
0
0
0
0
0
0
0
0
0
0
0
0
0
0
0
0
0
0
0
0
0
0
0
0
0
0
0
0
0
0
0
0
0
0
0
0
0
0
0
0
0
0
0
0
0
0
0
0
0
0
0
0
0
0
0
0
0
0
0
0
0
0
0
0
0
0
0
0
0
0
0
0
0
0
0
0
0
0
0
0
0
0
0
0
0
0
0
0
0
0
0
0
0
0
0
0
0
0
0
0
0
0
0
0
0
0
0
0
0
0
0
0
0
0
0
0
0
0
0
0
0
0
0
0
0
0
0
0
0
0
0
0
0
0
0
0
0
0
0
0
0
0
0
0
0
0
0
0
0
0
0
0
0
0
0
0
0
0
0
0
0
0
0
0
0
0
0
0
0
0
0
0
0
0
0
0
0
0
0
0
0
0
0
0
0
0
0
0
0
0
0
0
0
0
0
0
0
0
0
0
0
0
0
0
0
0
0
0
0
0
0
0
0
0
0
0
0
0
0
0
0
0
0
0
0
0
0
0
0
0
0
0
0
SCALARS damp_viscous double 1
LOOKUP_TABLE default
0
0
0
0
0
0
0
0
0
0
0
0
0
0
0
0
0
0
0
0
0
0
0
0
0
0
0
0
0
0
0
0
0
0
0
0
0
0
0
0
0
0
0
0
0
0
0
0
0
0
0
0
0
0
0
0
0
0
0
0
0
0
0
0
0
0
0
0
0
0
0
0
0
0
0
0
0
0
0
0
0
0
0
0
0
0
0
0
0
0
0
0
0
0
0
0
0
0
0
0
0
0
0
0
0
0
0
0
0
0
0
0
0
0
0
0
0
0
0
0
0
0
0
0
0
0
0
0
0
0
0
0
0
0
0
0
0
0
0
0
0
0
0
0
0
0
0
0
0
0
0
0
0
0
0
0
0
0
0
0
0
0
0
0
0
0
0
0
0
0
0
0
0
0
0
0
0
0
0
0
0
0
0
0
0
0
0
0
0
0
0
0
0
0
0
0
0
0
0
0
0
0
0
0
0
0
0
0
0
0
0
0
0
0
0
0
0
0
0
0
0
0
0
0
0
0
0
0
0
0
0
0
0
0
0
0
0
0
0
0
0
0
0
0
0
0
0
0
0
0
0
0
0
0
0
0
0
0
0
0
0
0
0
0
0
0
0
0
0
0
0
0
0
0
0
0
0
0
0
0
0
0
0
0
0
0
0
0
0
0
0
0
0
0
0
0
0
0
0
0
0
0
0
0
0
0
0
0
0
0
0
0
0
0
0
0
0
0
0
0
0
0
0
0
0
SCALARS damp_numerical double 1
LOOKUP_TABLE default
0.5
0.5
0.5
0.5
0.5
0.5
0.5
0.5
0.5
0.5
0.5
0.5
0.5
0.5
0.5
0.5
0.5
0.5
0.5
0.5
0.5
0.5
0.5
0.5
0.5
0.5
0.5
0.5
0.5
0.5
0.5
0.5
0.5
0.5
0.5
0.5
0.5
0.5
0.5
0.5
0.5
0.5
0.5
0.5
0.5
0.5
0.5
0.5
0.5
0.5
0.5
0.5
0.5
0.5
0.5
0.5
0.5
0.5
0.5
0.5
0.5
0.5
0.5
0.5
0.5
0.5
0.5
0.5
0.5
0.5
0.5
0.5
0.5
0.5
0.5
0.5
0.5
0.5
0.5
0.5
0.5
0.5
0.5
0.5
0.5
0.5
0.5
0.5
0.5
0.5
0.5
0.5
0.5
0.5
0.5
0.5
0.5
0.5
0.5
0.5
0.5
0.5
0.5
0.5
0.5
0.5
0.5
0.5
0.5
0.5
0.5
0.5
0.5
0.5
0.5
0.5
0.5
0.5
0.5
0.5
0.5
0.5
0.5
0.5
0.5
0.5
0.5
0.5
0.5
0.5
0.5
0.5
0.5
0.5
0.5
0.5
0.5
0.5
0.5
0.5
0.5
0.5
0.5
0.5
0.5
0.5
0.5
0.5
0.5
0.5
0.5
0.5
0.5
0.5
0.5
0.5
0.5
0.5
0.5
0.5
0.5
0.5
0.5
0.5
0.5
0.5
0.5
0.5
0.5
0.5
0.5
0.5
0.5
0.5
0.5
0.5
0.5
0.5
0.5
0.5
0.5
0.5
0.5
0.5
0.5
0.5
0.5
0.5
0.5
0.5
0.5
0.5
0.5
0.5
0.5
0.5
0.5
0.5
0.5
0.5
0.5
0.5
0.5
0.5
0.5
0.5
0.5
0.5
0.5
0.5
0.5
0.5
0.5
0.5
0.5
0.5
0.5
0.5
0.5
0.5
0.5
0.5
0.5
0.5
0.5
0.5
0.5
0.5
0.5
0.5
0.5
0.5
0.5
0.5
0.5
0.5
0.5
0.5
0.5
0.5
0.5
0.5
0.5
0.5
0.5
0.5
0.5
0.5
0.5
0.5
0.5
0.5
0.5
0.5
0.5
0.5
0.5
0.5
0.5
0.5
0.5
0.5
0.5
0.5
0.5
0.5
0.5
0.5
0.5
0.5
0.5
0.5
0.5
0.5
0.5
0.5
0.5
0.5
0.5
0.5
0.5
0.5
0.5
0.5
0.5
0.5
0.5
0.5
0.5
0.5
0.5
0.5
0.5
0.5
0.5
0.5
0.5
0.5
0.5
0.5
0.5
0.5
0.5
0.5
0.5
0.5
0.5
0.5
0.5
0.5
0.5
0.5
0.5
0.5
0.5
0.5
0.5
0.5
0.5
0.5
0.5
0.5
0.5
0.5
0.5
SCALARS quat double 4
LOOKUP_TABLE default
0.979802 0.0925307 -0.0134954 0.17676 
0.422936 0.19358 0.881935 0.076436 
0.996987 0.0660419 -0.0383603 -0.0135719 
-0.389478 -0.165021 -0.807275 -0.411562 
0.218235 0.323535 0.831742 0.394847 
0.822418 -0.226805 -0.145465 0.501027 
0.259029 0.245797 0.696789 0.622072 
0.947128 0.0660144 0.273627 0.154011 
-0.0186172 0.906814 0.420634 0.0202219 
0.296417 0.134631 0.0578555 0.94375 
0.916659 -0.0787298 0.0151458 0.391547 
0.895621 0.0119715 0.325166 0.303293 
0.115508 0.577388 0.641376 0.491851 
0.619692 0.709109 0.325597 -0.0844606 
0.790704 0.0742818 -0.0596557 0.604741 
0.995273 0.0808268 -0.0498879 -0.0202375 
0.656445 0.0500793 0.0138295 0.752583 
0.974237 0.0801037 -0.00787237 0.210675 
0.968725 0.11445 -0.0879167 0.201851 
-0.856987 0.301088 0.412745 -0.0675265 
0.99812 -0.0203167 0.0575996 -0.00505386 
-0.139836 0.510129 -0.559389 0.638199 
0.884189 -0.0144898 -0.446281 0.137236 
0.615236 0.748307 -0.23614 -0.0758888 
0.98478 0.0977616 -0.0974557 0.105606 
0.984477 0.114173 -0.0495883 0.123736 
0.422936 0.19358 0.881935 0.076436 
0.997524 -0.0119563 -0.028307 0.0632538 
0.624586 -0.185737 -0.709625 0.268004 
0.218235 0.323535 0.831742 0.394847 
0.810441 0.122622 0.488427 0.299312 
0.259029 0.245797 0.696789 0.622072 
0.947128 0.0660144 0.273627 0.154011 
0.315064 0.133685 0.0543743 0.938033 
0.467603 0.719597 0.374292 -0.351331 
0.578697 0.172349 0.0482265 0.795663 
0.895571 0.01211 0.325269 0.303325 
0.115508 0.577388 0.641376 0.491851 
0.715474 -0.587483 -0.364978 0.0987499 
0.210953 0.813172 0.3197 -0.438227 
0.970799 0.0771503 -0.144523 0.175244 
0.77506 0.0232123 -0.0116209 0.631354 
0.980284 0.0374148 0.070928 0.18059 
0.0129677 0.814812 0.55916 -0.152487 
0.849694 -0.00853366 -0.527032 0.0136028 
0.86435 0.494969 -0.0859011 0.0229384 
0.255472 -0.439536 0.595559 -0.621974 
-0.683563 0.599456 -0.415912 0.0202744 
0.441972 0.744531 -0.402705 0.296922 
-0.809087 0.569389 0.0587823 -0.133115 
0.962138 0.161772 -0.219323 0.00414808 
0.422936 0.19358 0.881935 0.076436 
0.995638 -0.0539711 -0.030736 0.0696167 
0.837278 -0.227273 -0.154516 -0.472691 
0.218235 0.323535 0.831742 0.394847 
-0.536488 0.332883 0.500977 -0.591939 
0.259029 0.245797 0.696789 0.622072 
0.947128 0.0660144 0.273627 0.154011 
-0.476979 0.294406 0.163086 -0.811923 
0.320594 -0.59232 -0.134492 0.726834 
0.0454472 0.729399 0.62682 -0.270201 
0.895384 0.0124462 0.325721 0.303377 
0.115508 0.577388 0.641376 0.491851 
-0.0800752 0.546643 0.825661 0.114248 
-0.0590373 0.356105 0.913134 -0.189445 
0.926607 0.184868 -0.323339 0.0517192 
0.633128 -0.229471 -0.131828 0.727402 
0.987473 0.0183031 0.0365567 0.152399 
0.889206 -0.0362107 0.425957 -0.16298 
-0.846983 -0.521244 0.0146584 0.10349 
0.6793 -0.636275 -0.356103 0.0830489 
-0.364167 -0.860688 0.333551 -0.123865 
0.0579261 0.214238 -0.793525 -0.566625 
-0.595002 0.739832 -0.301554 -0.0876777 
0.954172 -0.261287 -0.0256341 -0.143623 
0.926845 0.189378 -0.323717 0.0173395 
0.422936 0.19358 0.881935 0.076436 
0.982349 -0.00706646 -0.183651 0.0348139 
0.959316 0.163585 0.0906075 -0.211527 
0.218235 0.323535 0.831742 0.394847 
0.806123 0.428165 -0.273316 -0.303543 
0.259029 0.245797 0.696789 0.622072 
0.947128 0.0660144 0.273627 0.154011 
-0.0726062 0.830158 -0.0584768 0.549678 
0.0821397 0.464861 0.141237 0.870178 
0.908642 -0.11827 0.110721 0.384866 
0.89661 0.00965702 0.322956 0.302816 
0.115508 0.577388 0.641376 0.491851 
0.906429 0.386562 -0.0832258 -0.148426 
0.265639 -0.882093 -0.0400887 0.386962 
0.980393 0.0719252 0.0742644 -0.167752 
-0.215947 0.958465 -0.123001 -0.139937 
0.952731 0.0810023 -0.0393378 0.290165 
0.941531 -0.191395 0.265034 0.0815101 
0.849848 -0.0440605 0.4804 -0.212211 
0.644199 -0.648219 0.0107376 -0.405838 
0.486836 -0.20574 0.458735 0.7143 
0.556443 0.258948 -0.521437 0.592807 
-0.413153 0.727006 -0.234629 -0.495697 
0.979389 0.168181 -0.0702761 -0.0870283 
0.984713 0.12941 -0.116572 -0.00188216 
0.422936 0.19358 0.881935 0.076436 
0.648434 0.352195 -0.66623 -0.107838 
-0.354182 -0.355377 -0.864883 0.0154692 
0.218235 0.323535 0.831742 0.394847 
0.924433 -0.257381 0.188038 0.209331 
0.259029 0.245797 0.696789 0.622072 
0.947128 0.0660144 0.273627 0.154011 
0.489872 0.850424 0.095755 -0.166236 
0.39345 0.765783 -0.4834 0.158424 
0.671106 -0.564437 -0.307686 0.369265 
0.896137 0.01162 0.323702 0.303349 
0.115508 0.577388 0.641376 0.491851 
0.949436 0.121369 0.273808 -0.0941812 
0.482815 0.0529919 -0.507063 0.712017 
0.99172 0.0681588 -0.108764 -0.00397536 
0.800098 0.00642545 -0.00201391 0.599832 
0.921143 0.117897 -0.0980843 0.357737 
0.918879 -0.0109506 -0.0198776 0.393886 
0.449431 0.386715 -0.673919 0.440792 
0.339682 0.861298 0.117936 -0.358988 
-0.0039269 0.0464335 -0.534232 0.844053 
-0.547731 -0.0300355 -0.657967 -0.515915 
-0.956245 -0.215428 -0.138028 0.141899 
0.861287 -0.489366 0.0286282 0.13374 
0.945793 0.201547 -0.254392 0.0117608 
0.422936 0.19358 0.881935 0.076436 
0.555862 0.363282 -0.72186 -0.194839 
0.15051 -0.387069 0.909084 0.0330183 
0.218235 0.323535 0.831742 0.394847 
-0.286161 0.38849 0.867598 0.120256 
0.259029 0.245797 0.696789 0.622072 
0.947128 0.0660144 0.273627 0.154011 
0.133615 0.914557 0.368327 -0.100337 
0.372413 0.60902 0.650611 -0.259054 
0.606932 -0.332967 -0.280579 0.664862 
0.883716 0.0355109 0.351136 0.307391 
0.115508 0.577388 0.641376 0.491851 
-0.10434 0.802954 0.535006 -0.241134 
-0.00212329 0.939421 0.31912 -0.125086 
0.80224 0.309549 -0.506638 0.0625114 
0.745543 -0.176129 -0.0575932 0.640178 
0.943282 0.166353 -0.00867363 0.287177 
0.996247 0.0477826 0.0719807 -0.00522814 
-0.281625 -0.138687 -0.869385 -0.381605 
0.730889 -0.679374 0.064611 -0.00879275 
0.668106 -0.0651201 0.713616 0.200366 
0.666037 -0.515169 0.267643 0.468361 
-0.0160178 -0.835237 0.141381 -0.531163 
-0.253098 0.96645 0.0111035 -0.0423401 
0.976527 0.135822 0.0648784 -0.154076 
0.422936 0.19358 0.881935 0.076436 
0.830443 -0.151638 0.476387 -0.245814 
-0.984446 -0.0886899 -0.139129 0.0603676 
0.218235 0.323535 0.831742 0.394847 
0.589312 -0.29213 -0.650649 0.379508 
0.259029 0.245797 0.696789 0.622072 
0.947128 0.0660144 0.273627 0.154011 
0.841259 0.150986 -0.150201 0.496917 
0.240892 -0.211469 0.298784 0.898877 
-0.0353658 0.865483 0.472522 0.162514 
0.909233 -0.0233712 0.292649 0.295138 
0.115508 0.577388 0.641376 0.491851 
0.993469 0.0811491 -0.0484299 -0.0639498 
0.494241 -0.79282 0.352881 -0.0513666 
0.791446 0.257785 -0.551157 0.0581883 
0.743664 0.0690968 -0.0600671 0.662254 
0.963374 0.145604 0.0655201 0.215445 
-0.296634 0.952783 0.055328 0.033931 
-0.327506 -0.680392 -0.269925 -0.59745 
-0.173353 -0.977848 -0.0817362 0.0841475 
0.201312 0.485263 0.531787 0.664226 
0.879761 -0.171604 0.435636 -0.082423 
-0.157381 -0.871678 0.209522 0.414136 
0.87063 -0.32785 -0.346306 -0.120786 
0.93114 -0.143851 0.329991 -0.0582364 
0.422936 0.19358 0.881935 0.076436 
0.993934 0.0530844 -0.0959417 0.00851305 
-0.651642 0.206502 0.507937 -0.524137 
0.218235 0.323535 0.831742 0.394847 
0.920644 -0.097166 0.0518047 0.374552 
0.259029 0.245797 0.696789 0.622072 
0.947128 0.0660144 0.273627 0.154011 
-0.304693 0.894065 -0.0345174 0.326524 
0.0190386 0.91285 0.340576 0.224387 
0.970473 0.0201415 0.184275 0.154335 
0.93104 -0.0684224 0.216139 0.28595 
0.115508 0.577388 0.641376 0.491851 
0.934492 0.317476 -0.0705088 0.144786 
0.477341 0.857648 0.0515358 0.184198 
0.978627 -0.080916 0.170608 -0.0814573 
0.593839 0.533384 -0.0836167 0.596544 
0.976117 0.16795 -0.00218489 0.137782 
0.957797 -0.282966 0.00565477 -0.0502363 
0.478499 -0.0900396 -0.762022 0.426913 
-0.812403 0.579051 -0.0570787 0.0380069 
-0.0906476 0.477888 -0.510148 0.709334 
0.313357 0.928882 0.0512836 0.190673 
-0.930601 0.155396 -0.330116 0.0292831 
0.0248843 0.921729 0.386987 0.00613669 
0.999729 -0.00807787 0.0110636 0.018839 
0.422936 0.19358 0.881935 0.076436 
0.989202 -0.128698 0.0685655 0.0146896 
0.738321 -0.164323 0.632505 -0.166786 
0.218235 0.323535 0.831742 0.394847 
0.376245 0.120876 0.879386 0.265535 
0.259029 0.245797 0.696789 0.622072 
0.947128 0.0660144 0.273627 0.154011 
0.315314 0.828271 0.156166 0.43607 
0.258374 -0.296601 -0.500459 0.77124 
0.931983 0.177355 0.124855 0.290453 
0.74284 0.228548 0.539449 0.323958 
0.115508 0.577388 0.641376 0.491851 
-0.0592381 0.704974 0.693214 -0.137681 
0.210461 0.773633 0.0568415 0.594952 
0.98605 0.0168677 0.163346 0.0271795 
0.674745 0.410878 -0.0545226 0.610677 
0.986191 0.154099 -0.0462984 0.0391982 
0.959887 -0.229049 0.117543 0.111073 
0.0901222 0.28106 -0.95405 0.0516877 
0.702014 -0.708295 -0.0686566 -0.0279346 
0.53045 -0.181489 0.827978 -0.0117149 
0.81067 0.14525 0.196243 0.53217 
0.200539 -0.888863 0.397655 -0.107593 
0.990401 0.117964 -0.057974 -0.0427745 
0.961752 0.0129519 -0.245922 -0.11995 
0.422936 0.19358 0.881935 0.076436 
0.96356 0.0536429 -0.253949 0.0646947 
0.872946 0.247656 -0.224967 0.354996 
0.218235 0.323535 0.831742 0.394847 
0.910115 -0.184311 0.222498 0.297009 
0.259029 0.245797 0.696789 0.622072 
0.947128 0.0660144 0.273627 0.154011 
0.40108 0.791849 0.149103 0.43575 
0.00281122 0.790014 0.61307 0.00382822 
0.845754 0.301237 0.365608 0.245535 
0.778199 0.150284 0.522291 0.314696 
0.115508 0.577388 0.641376 0.491851 
0.961168 -0.0334158 -0.130604 0.240794 
0.929702 0.118406 0.175059 0.301642 
0.969565 0.0869415 0.00925758 0.22869 
-0.232465 0.770635 -0.3127 0.504281 
0.991084 -0.1047 0.0713797 0.0411619 
0.717633 0.53025 0.412558 0.183394 
0.861528 0.0369688 0.317652 0.394334 
0.999699 -0.0242893 0.00343733 0.000122762 
0.504981 -0.000609889 0.814955 0.284328 
0.672013 -0.212399 0.659735 0.260835 
0.865674 0.435175 0.137504 0.20573 
0.556838 0.767596 0.316447 0.0242806 
0.575729 0.367645 -0.68166 0.262132 
0.422936 0.19358 0.881935 0.076436 
0.358987 0.722928 -0.578393 -0.118176 
0.109328 -0.138469 -0.973478 0.14565 
0.218235 0.323535 0.831742 0.394847 
0.732411 0.0747237 0.625861 0.257463 
0.259029 0.245797 0.696789 0.622072 
0.947128 0.0660144 0.273627 0.154011 
0.19389 0.794976 0.480281 0.315833 
0.328121 0.118961 -0.0093897 0.937068 
0.900293 0.258127 0.230516 0.264019 
0.842417 0.0639464 0.445679 0.295996 
0.115508 0.577388 0.641376 0.491851 
0.73234 0.622255 0.275313 -0.0260708 
0.791615 0.464552 0.137842 0.372206 
0.951412 0.180955 -0.220337 0.116288 
-0.15377 -0.722672 0.634672 -0.226475 
0.968296 -0.132365 -0.0382528 0.208373 
0.934795 0.207764 0.150589 0.245592 
0.741479 -0.117396 0.63963 -0.165228 
0.898954 -0.437267 0.0260428 -0.000711119 
0.48577 0.0781897 0.765227 0.415141 
0.828344 0.105074 0.195057 0.514547 
0.737379 -0.573002 0.284859 0.216323 
0.961173 0.224219 0.160398 0.0120319 
0.682324 0.431606 -0.575128 0.131827 
0.422936 0.19358 0.881935 0.076436 
0.742338 -0.637271 0.0221359 -0.205744 
0.359444 0.617353 0.422215 -0.558041 
0.218235 0.323535 0.831742 0.394847 
0.819863 -0.0155392 0.493325 0.290198 
0.259029 0.245797 0.696789 0.622072 
0.947128 0.0660144 0.273627 0.154011 
-0.390305 0.732536 0.332434 0.447817 
0.133641 0.566108 0.394437 0.711394 
0.86078 0.35672 0.248759 0.264438 
0.867632 -0.396212 -0.26069 0.149236 
0.115508 0.577388 0.641376 0.491851 
0.81453 0.468009 0.342784 0.00277569 
0.833551 0.351824 0.0200104 0.425456 
0.816959 0.199039 -0.513353 0.171552 
-0.0805577 0.2994 0.942158 0.127311 
0.856119 0.0606403 -0.175234 0.482366 
0.822914 0.345737 0.300544 0.336083 
0.245192 -0.159352 0.955466 -0.0396477 
0.921437 0.387882 -0.0189215 0.0119966 
0.365112 0.354469 0.425252 0.748469 
0.680182 0.346664 -0.088755 0.639765 
-0.0611857 0.472944 -0.740635 -0.473329 
0.770486 0.581978 0.259606 -0.0160591 
0.470179 0.65127 0.442222 -0.399021 
0.422936 0.19358 0.881935 0.076436 
0.98944 0.114568 0.00869092 0.0883571 
0.793577 -0.138951 0.559561 0.194473 
0.218235 0.323535 0.831742 0.394847 
0.813231 0.00589841 0.506291 0.286861 
0.259029 0.245797 0.696789 0.622072 
0.947128 0.0660144 0.273627 0.154011 
0.260562 0.790868 0.475637 0.283557 
0.241786 0.448885 0.409847 0.756351 
0.906699 0.205835 0.305795 0.204985 
0.772124 0.14393 0.437829 0.437509 
0.115508 0.577388 0.641376 0.491851 
0.81975 0.501504 0.272732 0.0460555 
0.824488 0.388943 0.180706 0.369174 
0.946454 0.0595743 -0.209244 -0.238524 
0.140938 -0.630839 0.339664 -0.683233 
0.94638 0.265054 0.063122 0.173572 
0.894099 0.242412 0.307197 0.217838 
0.703013 0.336415 -0.216445 0.588005 
0.999571 0.02924 -0.00147144 0.00048391 
0.381548 0.253431 0.529869 0.713745 
-0.0437888 0.830182 -0.526929 0.176709 
0.5321 0.604117 0.251443 0.537298 
0.871078 0.446684 0.20369 0.0143468 
VECTORS vel double
-0.00301537 -0.027323 -0.00130036 
0 0 0.0469642 
0.000971578 0.00461238 -0.0020637 
0.00150491 -0.210973 -2.45395e-13 
0 0 0.0468562 
-0.0176718 -0.0119529 -0.00510554 
0 0 0.0469394 
0 0 0.0460905 
0.120679 -0.0534966 -0.0215807 
0.00223087 -0.0114771 0.0170592 
-0.0585435 -0.114538 -0.0521709 
-0.0029641 0.00171731 0.0725114 
0 0 0.0469502 
-0.0105207 -0.0405187 0.00346752 
0.00974238 -0.00309904 -0.00394406 
-0.0138894 -0.0630338 -0.00380838 
-0.0180669 0.0265472 0.0322481 
-0.0125554 -0.00730254 -0.0128957 
3.71759e-06 3.44247e-05 -2.21482e-06 
-0.0675702 0.0707391 -0.0230644 
0.106004 -0.00273914 -0.00122528 
-0.00105686 -0.00118264 0.0125294 
-0.221851 0.138584 -0.00077256 
-0.0139986 0.0827461 -0.0172592 
-0.00182908 -0.0292572 -0.00384495 
-0.0629565 -0.0429241 0.248302 
0 0 0.0893023 
0.0703311 0.0487395 0.0299399 
0.00329548 -0.0350526 -1.07969 
0 0 0.0890941 
-0.0848035 -0.0140597 -0.0378839 
0 0 0.0892414 
0 0 0.087764 
-3.31828e-05 -8.16817e-05 -1.75894e-05 
0.0168501 -0.0258745 0.0259324 
-0.103014 -0.184777 -0.0627494 
-0.00337575 -0.000175618 0.153127 
0 0 0.0892617 
0.0171662 -0.00977574 -0.00209018 
-0.0029675 -0.0120063 0.00359471 
0.0947023 -0.145965 -0.000663861 
0.017537 -0.015424 0.0195077 
-0.0537724 0.0278771 -0.00303618 
-0.00942299 -0.00922471 -0.0100541 
-0.0326379 -0.0615503 -0.121585 
0.0459649 -0.000423682 -0.00328902 
0.0345104 0.0167989 -0.0146263 
-0.221227 -0.160029 -0.00563145 
-0.00422777 0.0622507 -0.0524688 
0.00645978 0.00679682 0.00609887 
-0.0682764 -0.0880082 0.796977 
0 0 0.128669 
0.207863 0.148742 -0.0558457 
-0.140405 -0.122622 -1.07623 
0 0 0.128322 