# vtk DataFile Version 2.0
Generated by NetDEM
ASCII 
DATASET POLYDATA
POINTS 225 double
-0.41691 -0.405462 -0.462823 
-0.403333 -0.203333 -0.450063 
-0.411454 -0.00748074 -0.464176 
-0.403184 0.197032 -0.450063 
-0.402763 0.397237 -0.450063 
-0.264673 -0.432971 -0.459579 
-0.203538 -0.203538 -0.450063 
-0.203218 -0.00321788 -0.450063 
-0.175668 0.204796 -0.45804 
-0.246754 0.369131 -0.465047 
-0.0281951 -0.404985 -0.451495 
-0.00366947 -0.203669 -0.450063 
-0.00360232 -0.00360232 -0.450063 
0.035928 0.174683 -0.45078 
-0.037199 0.393393 -0.465044 
0.189043 -0.398142 -0.464449 
0.174424 -0.212145 -0.464763 
0.172892 -0.00941087 -0.462557 
0.158377 0.209766 -0.465036 
0.196913 0.396913 -0.450063 
0.396713 -0.403287 -0.450063 
0.39661 -0.20339 -0.450063 
0.396488 -0.00351175 -0.450063 
0.396508 0.196508 -0.450063 
0.371601 0.444682 -0.464012 
-0.402805 -0.399693 -0.388119 
-0.403333 -0.203333 -0.35012 
-0.41265 -0.00930728 -0.390602 
-0.403127 0.197035 -0.350119 
-0.402763 0.397237 -0.35012 
-0.300719 -0.404721 -0.383762 
-0.203538 -0.203538 -0.35012 
-0.203218 -0.00321788 -0.35012 
-0.298533 0.165198 -0.459051 
-0.154517 0.407681 -0.443611 
-0.032669 -0.39129 -0.376167 
-0.00366947 -0.203669 -0.35012 
-0.00360232 -0.00360232 -0.35012 
0.00110215 0.238228 -0.429686 
0.0331421 0.358058 -0.403049 
0.187704 -0.396357 -0.392017 
0.194383 -0.20715 -0.391295 
0.185865 -0.0133921 -0.38384 
0.199211 0.126023 -0.437054 
0.196913 0.396913 -0.35012 
0.396713 -0.403287 -0.35012 
0.39661 -0.20339 -0.35012 
0.396488 -0.00351175 -0.35012 
0.396508 0.196508 -0.35012 
0.38491 0.367241 -0.429228 
-0.401112 -0.403942 -0.315971 
-0.403333 -0.203333 -0.250169 
-0.394336 -0.00258182 -0.311259 
-0.4029 0.197053 -0.250168 
-0.402763 0.397237 -0.250169 
-0.182705 -0.399908 -0.433999 
-0.203538 -0.203538 -0.250169 
-0.203218 -0.00321788 -0.250169 
-0.206187 0.207449 -0.377593 
-0.203293 0.435778 -0.374102 
-0.001138 -0.409582 -0.297401 
-0.00366947 -0.203669 -0.250169 
-0.00360232 -0.00360232 -0.250169 
-0.0306662 0.229875 -0.34139 
0.0932906 0.356273 -0.339908 
0.175406 -0.394702 -0.318499 
0.177379 -0.185364 -0.305882 
0.187782 0.00247955 -0.309225 
0.264501 0.100164 -0.383309 
0.196913 0.396913 -0.250169 
0.396713 -0.403287 -0.250169 
0.39661 -0.20339 -0.250169 
0.396488 -0.00351175 -0.250169 
0.396508 0.196508 -0.250169 
0.408433 0.319537 -0.342864 
-0.409881 -0.405203 -0.240236 
-0.403333 -0.203333 -0.150212 
-0.393894 0.00137464 -0.234656 
-0.402959 0.19705 -0.15021 
-0.402763 0.397237 -0.150212 
-0.139411 -0.408308 -0.342754 
-0.203538 -0.203538 -0.150212 
-0.203218 -0.00321788 -0.150212 
-0.149186 0.187494 -0.31912 
-0.210668 0.415935 -0.28593 
0.0324525 -0.406291 -0.21766 
-0.00366947 -0.203669 -0.150212 
-0.00360232 -0.00360232 -0.150212 
-0.00685901 0.169364 -0.298441 
0.0226596 0.414286 -0.310528 
0.19968 -0.398721 -0.229396 
0.186472 -0.200244 -0.220494 
0.192212 0.00288214 -0.235323 
0.207821 0.195281 -0.366889 
0.196913 0.396913 -0.150212 
0.396713 -0.403287 -0.150212 
0.39661 -0.20339 -0.150212 
0.396488 -0.00351175 -0.150212 
0.396508 0.196508 -0.150212 
0.397802 0.380453 -0.281805 
-0.407336 -0.408381 -0.156216 
-0.403333 -0.203333 -0.0502473 
-0.397102 -0.0053593 -0.152853 
-0.402951 0.197049 -0.0502458 
-0.402763 0.397237 -0.0502475 
-0.232105 -0.401804 -0.290019 
-0.203538 -0.203538 -0.0502472 
-0.203218 -0.00321788 -0.0502477 
-0.214103 0.186609 -0.243215 
-0.222766 0.387474 -0.212677 
0.009522 -0.391821 -0.140161 
-0.00366947 -0.203669 -0.0502471 
-0.00360232 -0.00360232 -0.0502471 
-0.0140534 0.214332 -0.199745 
-0.0262911 0.420522 -0.225293 
0.197712 -0.405651 -0.157031 
0.198471 -0.231185 -0.13449 
0.187809 0.00114615 -0.162398 
0.186025 0.210263 -0.272326 
0.196913 0.396913 -0.0502477 
0.396713 -0.403287 -0.0502477 
0.39661 -0.20339 -0.0502473 
0.396488 -0.00351175 -0.0502474 
0.396508 0.196508 -0.0502472 
0.39752 0.415558 -0.199835 
-0.41266 -0.407038 -0.0796457 
-0.403333 -0.203333 0.0497242 
-0.41951 -0.00449104 -0.0780013 
-0.40295 0.19705 0.0497259 
-0.402763 0.397237 0.049724 
-0.224228 -0.403248 -0.199338 
-0.203538 -0.203538 0.0497243 
-0.203218 -0.00321788 0.0497237 
-0.20985 0.205516 -0.154449 
-0.191952 0.392558 -0.122205 
-0.0153507 -0.397762 -0.0572869 
-0.00366947 -0.203669 0.0497244 
-0.00360232 -0.00360232 0.0497244 
-0.00790203 0.197762 -0.107643 
-0.00420566 0.389456 -0.142153 
0.208232 -0.400878 -0.0779854 
0.193873 -0.208392 -0.0420767 
0.184764 -0.00232976 -0.0864924 
0.203212 0.21729 -0.184472 
0.196913 0.396913 0.0497238 
0.396713 -0.403287 0.0497238 
0.39661 -0.20339 0.0497243 
0.396488 -0.00351175 0.0497241 
0.396508 0.196508 0.0497243 
0.392284 0.398347 -0.105855 
-0.408756 -0.403018 0.00352462 
-0.403333 -0.203333 0.149703 
-0.402293 -0.00024736 0.013451 
-0.402951 0.19705 0.149705 
-0.402763 0.397237 0.149703 
-0.189996 -0.402133 -0.0913418 
-0.203538 -0.203538 0.149703 
-0.203218 -0.00321788 0.149702 
-0.205713 0.202952 -0.0631704 
-0.203729 0.400281 -0.0462691 
-0.0104214 -0.404789 0.0365949 
-0.00366947 -0.203669 0.149703 
-0.00360232 -0.00360232 0.149703 
0.00254652 0.193173 -0.00205458 
-0.0014679 0.396085 -0.0517714 
0.188921 -0.406383 -0.0062228 
0.199157 -0.202544 0.0373622 
0.190717 -0.00425672 -0.00306166 
0.194765 0.191589 -0.0961206 
0.196913 0.396913 0.149702 
0.396713 -0.403287 0.149702 
0.39661 -0.20339 0.149703 
0.396488 -0.00351175 0.149703 
0.396508 0.196508 0.149703 
0.398324 0.385529 -0.0208844 
-0.410235 -0.403581 0.0783276 
-0.403333 -0.203333 0.249689 
-0.411176 -0.00376832 0.0867511 
-0.40295 0.19705 0.24969 
-0.402763 0.397237 0.249688 
-0.203772 -0.402603 0.0133126 
-0.203538 -0.203538 0.249689 
-0.203218 -0.00321788 0.249688 
-0.201587 0.189415 0.0376893 
-0.204629 0.394001 0.0515242 
-0.00470064 -0.404723 0.12961 
-0.00366947 -0.203669 0.249689 
-0.00360232 -0.00360232 0.249689 
0.00179226 0.200087 0.088751 
-0.00384895 0.398554 0.0341283 
0.197203 -0.399929 0.0851918 
0.194115 -0.204421 0.127334 
0.18889 -0.00645263 0.0710425 
0.194598 0.196135 0.00421379 
0.196913 0.396913 0.249688 
0.396713 -0.403287 0.249688 
0.39661 -0.20339 0.249689 
0.396488 -0.00351175 0.249688 
0.396508 0.196508 0.249689 
0.396713 0.400697 0.0657186 
-0.403613 -0.403639 0.172513 
-0.403333 -0.203333 0.349681 
-0.403734 -0.00397365 0.177016 
-0.40295 0.19705 0.349683 
-0.402763 0.397237 0.349681 
-0.203099 -0.403099 0.172351 
-0.203538 -0.203538 0.349681 
-0.203218 -0.00321788 0.349681 
-0.203937 0.196063 0.171513 
-0.203347 0.396653 0.172104 
-0.00370762 -0.403225 0.224503 
-0.00366947 -0.203669 0.349682 
-0.00360232 -0.00360232 0.349682 
-0.00211052 0.197555 0.199075 
-0.00266816 0.397332 0.172782 
0.197698 -0.402302 0.173148 
0.196002 -0.204028 0.216939 
0.197391 -0.00260897 0.172842 
0.197198 0.197198 0.172648 
0.196913 0.396913 0.349681 
0.396713 -0.403287 0.349681 
0.39661 -0.20339 0.349681 
0.396488 -0.00351175 0.349681 
0.396508 0.196508 0.349681 
0.396548 0.396484 0.17386 
VERTICES 225 450
1 0
1 1
1 2
1 3
1 4
1 5
1 6
1 7
1 8
1 9
1 10
1 11
1 12
1 13
1 14
1 15
1 16
1 17
1 18
1 19
1 20
1 21
1 22
1 23
1 24
1 25
1 26
1 27
1 28
1 29
1 30
1 31
1 32
1 33
1 34
1 35
1 36
1 37
1 38
1 39
1 40
1 41
1 42
1 43
1 44
1 45
1 46
1 47
1 48
1 49
1 50
1 51
1 52
1 53
1 54
1 55
1 56
1 57
1 58
1 59
1 60
1 61
1 62
1 63
1 64
1 65
1 66
1 67
1 68
1 69
1 70
1 71
1 72
1 73
1 74
1 75
1 76
1 77
1 78
1 79
1 80
1 81
1 82
1 83
1 84
1 85
1 86
1 87
1 88
1 89
1 90
1 91
1 92
1 93
1 94
1 95
1 96
1 97
1 98
1 99
1 100
1 101
1 102
1 103
1 104
1 105
1 106
1 107
1 108
1 109
1 110
1 111
1 112
1 113
1 114
1 115
1 116
1 117
1 118
1 119
1 120
1 121
1 122
1 123
1 124
1 125
1 126
1 127
1 128
1 129
1 130
1 131
1 132
1 133
1 134
1 135
1 136
1 137
1 138
1 139
1 140
1 141
1 142
1 143
1 144
1 145
1 146
1 147
1 148
1 149
1 150
1 151
1 152
1 153
1 154
1 155
1 156
1 157
1 158
1 159
1 160
1 161
1 162
1 163
1 164
1 165
1 166
1 167
1 168
1 169
1 170
1 171
1 172
1 173
1 174
1 175
1 176
1 177
1 178
1 179
1 180
1 181
1 182
1 183
1 184
1 185
1 186
1 187
1 188
1 189
1 190
1 191
1 192
1 193
1 194
1 195
1 196
1 197
1 198
1 199
1 200
1 201
1 202
1 203
1 204
1 205
1 206
1 207
1 208
1 209
1 210
1 211
1 212
1 213
1 214
1 215
1 216
1 217
1 218
1 219
1 220
1 221
1 222
1 223
1 224
POINT_DATA 225
SCALARS id int 1
LOOKUP_TABLE default
0
1
2
3
4
5
6
7
8
9
10
11
12
13
14
15
16
17
18
19
20
21
22
23
24
25
26
27
28
29
30
31
32
33
34
35
36
37
38
39
40
41
42
43
44
45
46
47
48
49
50
51
52
53
54
55
56
57
58
59
60
61
62
63
64
65
66
67
68
69
70
71
72
73
74
75
76
77
78
79
80
81
82
83
84
85
86
87
88
89
90
91
92
93
94
95
96
97
98
99
100
101
102
103
104
105
106
107
108
109
110
111
112
113
114
115
116
117
118
119
120
121
122
123
124
125
126
127
128
129
130
131
132
133
134
135
136
137
138
139
140
141
142
143
144
145
146
147
148
149
150
151
152
153
154
155
156
157
158
159
160
161
162
163
164
165
166
167
168
169
170
171
172
173
174
175
176
177
178
179
180
181
182
183
184
185
186
187
188
189
190
191
192
193
194
195
196
197
198
199
200
201
202
203
204
205
206
207
208
209
210
211
212
213
214
215
216
217
218
219
220
221
222
223
224
SCALARS type int 1
LOOKUP_TABLE default
0
0
0
0
0
0
0
0
0
0
0
0
0
0
0
0
0
0
0
0
0
0
0
0
0
0
0
0
0
0
0
0
0
0
0
0
0
0
0
0
0
0
0
0
0
0
0
0
0
0
0
0
0
0
0
0
0
0
0
0
0
0
0
0
0
0
0
0
0
0
0
0
0
0
0
0
0
0
0
0
0
0
0
0
0
0
0
0
0
0
0
0
0
0
0
0
0
0
0
0
0
0
0
0
0
0
0
0
0
0
0
0
0
0
0
0
0
0
0
0
0
0
0
0
0
0
0
0
0
0
0
0
0
0
0
0
0
0
0
0
0
0
0
0
0
0
0
0
0
0
0
0
0
0
0
0
0
0
0
0
0
0
0
0
0
0
0
0
0
0
0
0
0
0
0
0
0
0
0
0
0
0
0
0
0
0
0
0
0
0
0
0
0
0
0
0
0
0
0
0
0
0
0
0
0
0
0
0
0
0
0
0
0
0
0
0
0
0
0
0
0
0
0
0
0
SCALARS damp_viscous double 1
LOOKUP_TABLE default
0
0
0
0
0
0
0
0
0
0
0
0
0
0
0
0
0
0
0
0
0
0
0
0
0
0
0
0
0
0
0
0
0
0
0
0
0
0
0
0
0
0
0
0
0
0
0
0
0
0
0
0
0
0
0
0
0
0
0
0
0
0
0
0
0
0
0
0
0
0
0
0
0
0
0
0
0
0
0
0
0
0
0
0
0
0
0
0
0
0
0
0
0
0
0
0
0
0
0
0
0
0
0
0
0
0
0
0
0
0
0
0
0
0
0
0
0
0
0
0
0
0
0
0
0
0
0
0
0
0
0
0
0
0
0
0
0
0
0
0
0
0
0
0
0
0
0
0
0
0
0
0
0
0
0
0
0
0
0
0
0
0
0
0
0
0
0
0
0
0
0
0
0
0
0
0
0
0
0
0
0
0
0
0
0
0
0
0
0
0
0
0
0
0
0
0
0
0
0
0
0
0
0
0
0
0
0
0
0
0
0
0
0
0
0
0
0
0
0
0
0
0
0
0
0
SCALARS damp_numerical double 1
LOOKUP_TABLE default
0.5
0.5
0.5
0.5
0.5
0.5
0.5
0.5
0.5
0.5
0.5
0.5
0.5
0.5
0.5
0.5
0.5
0.5
0.5
0.5
0.5
0.5
0.5
0.5
0.5
0.5
0.5
0.5
0.5
0.5
0.5
0.5
0.5
0.5
0.5
0.5
0.5
0.5
0.5
0.5
0.5
0.5
0.5
0.5
0.5
0.5
0.5
0.5
0.5
0.5
0.5
0.5
0.5
0.5
0.5
0.5
0.5
0.5
0.5
0.5
0.5
0.5
0.5
0.5
0.5
0.5
0.5
0.5
0.5
0.5
0.5
0.5
0.5
0.5
0.5
0.5
0.5
0.5
0.5
0.5
0.5
0.5
0.5
0.5
0.5
0.5
0.5
0.5
0.5
0.5
0.5
0.5
0.5
0.5
0.5
0.5
0.5
0.5
0.5
0.5
0.5
0.5
0.5
0.5
0.5
0.5
0.5
0.5
0.5
0.5
0.5
0.5
0.5
0.5
0.5
0.5
0.5
0.5
0.5
0.5
0.5
0.5
0.5
0.5
0.5
0.5
0.5
0.5
0.5
0.5
0.5
0.5
0.5
0.5
0.5
0.5
0.5
0.5
0.5
0.5
0.5
0.5
0.5
0.5
0.5
0.5
0.5
0.5
0.5
0.5
0.5
0.5
0.5
0.5
0.5
0.5
0.5
0.5
0.5
0.5
0.5
0.5
0.5
0.5
0.5
0.5
0.5
0.5
0.5
0.5
0.5
0.5
0.5
0.5
0.5
0.5
0.5
0.5
0.5
0.5
0.5
0.5
0.5
0.5
0.5
0.5
0.5
0.5
0.5
0.5
0.5
0.5
0.5
0.5
0.5
0.5
0.5
0.5
0.5
0.5
0.5
0.5
0.5
0.5
0.5
0.5
0.5
0.5
0.5
0.5
0.5
0.5
0.5
0.5
0.5
0.5
0.5
0.5
0.5
0.5
0.5
0.5
0.5
0.5
0.5
SCALARS quat double 4
LOOKUP_TABLE default
0.97992 0.0853681 -0.0194094 0.179144 
0.422936 0.19358 0.881935 0.076436 
0.994961 0.0624487 -0.0784366 -0.000228807 
0.936993 0.135212 0.0123006 0.321887 
0.218235 0.323535 0.831742 0.394847 
0.801719 -0.210888 -0.176261 0.530759 
0.259029 0.245797 0.696789 0.622072 
0.947128 0.0660144 0.273627 0.154011 
0.0557409 0.882301 0.455883 0.102997 
0.279658 0.131586 0.0593874 0.949184 
0.926701 0.0914583 0.15988 0.327564 
0.895604 0.01201 0.325206 0.3033 
0.115508 0.577388 0.641376 0.491851 
0.546339 0.737806 0.395679 -0.0243828 
0.798865 0.140547 -0.0327956 0.58394 
0.99505 0.0476388 -0.0872016 -0.00142072 
0.660141 0.135403 0.00548416 0.738817 
0.975812 0.0850023 -0.01361 0.200948 
0.967223 0.114574 -0.0865328 0.209438 
0.872998 0.106465 0.203002 0.430499 
1 0.000646178 0.000193913 0.000461524 
0.464545 0.197074 0.639242 0.580284 
0.80546 0.16019 0.208233 0.531236 
0.973067 0.0554567 0.156413 0.16 
0.995441 0.0316886 -0.0790883 0.0428641 
0.981532 0.108979 -0.0524051 0.14823 
0.422936 0.19358 0.881935 0.076436 
0.985913 0.0155473 -0.152091 0.0678349 
0.933874 0.136458 0.0186319 0.330018 
0.218235 0.323535 0.831742 0.394847 
0.798666 0.173546 0.544378 0.188856 
0.259029 0.245797 0.696789 0.622072 
0.947128 0.0660144 0.273627 0.154011 
0.306354 0.134914 0.122057 0.93437 
0.305025 0.807136 0.35834 -0.356488 
0.854732 0.082393 0.0841152 0.505539 
0.895604 0.01201 0.325206 0.3033 
0.115508 0.577388 0.641376 0.491851 
0.756861 -0.519921 -0.395737 -0.0153625 
0.287758 0.883834 0.365963 -0.0458623 
0.959289 0.0716747 -0.192534 0.193801 
0.745011 0.272935 0.0356405 0.607615 
0.97936 0.083421 0.0592888 0.174296 
0.147758 0.845692 0.512612 0.0142009 
0.872998 0.106465 0.203002 0.430499 
1 0.000646178 0.000193913 0.000461524 
0.464545 0.197074 0.639242 0.580284 
0.80546 0.16019 0.208233 0.531236 
0.973067 0.0554567 0.156413 0.16 
-0.535566 0.766676 0.330714 0.126511 
0.962152 0.15473 -0.179564 0.13446 
0.422936 0.19358 0.881935 0.076436 
0.982739 0.0466939 -0.157133 0.0857506 
0.933904 0.135482 0.0152232 0.330508 
0.218235 0.323535 0.831742 0.394847 
-0.61272 0.248418 0.673033 -0.331496 
0.259029 0.245797 0.696789 0.622072 
0.947128 0.0660144 0.273627 0.154011 
-0.352626 0.55369 0.161501 -0.736885 
0.246796 -0.498733 -0.218299 0.801687 
0.601074 0.488178 0.619615 0.128335 
0.895604 0.01201 0.325206 0.3033 
0.115508 0.577388 0.641376 0.491851 
-0.323432 0.653572 0.668929 0.144117 
0.853398 0.0922793 0.0243599 0.512448 
0.942237 0.116338 -0.30212 0.0858942 
0.628677 0.260594 -0.021339 0.732394 
0.993358 0.057268 0.0286879 0.0955937 
0.914627 -0.251738 0.315349 0.0253034 
0.872998 0.106465 0.203002 0.430499 
1 0.000646178 0.000193913 0.000461524 
0.464545 0.197074 0.639242 0.580284 
0.80546 0.16019 0.208233 0.531236 
0.973067 0.0554567 0.156413 0.16 
0.912061 -0.389499 0.0138977 -0.127449 
0.955647 0.161065 -0.236729 0.0689617 
0.422936 0.19358 0.881935 0.076436 
0.95026 0.0953381 -0.293564 0.0416849 
0.933893 0.13572 0.0158842 0.330412 
0.218235 0.323535 0.831742 0.394847 
0.935273 -0.332159 -0.0817526 0.0908356 
0.259029 0.245797 0.696789 0.622072 
0.947128 0.0660144 0.273627 0.154011 
0.157668 0.54462 0.092382 0.818532 
-0.179104 0.856949 0.382187 0.295793 
0.920661 0.091984 0.1571 0.345313 
0.895604 0.01201 0.325206 0.3033 
0.115508 0.577388 0.641376 0.491851 
0.949368 0.21666 0.206418 -0.0956536 
0.598126 -0.414124 -0.153783 0.668653 
0.977021 0.21204 0.00573576 -0.0208885 
0.524347 0.669647 -0.0838541 0.519232 
0.973151 0.0678408 0.00115028 0.219939 
0.887192 -0.352432 -0.261599 0.142297 
0.872998 0.106465 0.203002 0.430499 
1 0.000646178 0.000193913 0.000461524 
0.464545 0.197074 0.639242 0.580284 
0.80546 0.16019 0.208233 0.531236 
0.973067 0.0554567 0.156413 0.16 
0.690696 0.616437 0.364381 -0.100844 
0.971685 0.147907 -0.142018 0.1174 
0.422936 0.19358 0.881935 0.076436 
0.942298 0.129107 -0.308358 -0.0179525 
0.933897 0.135682 0.0158581 0.330416 
0.218235 0.323535 0.831742 0.394847 
0.963116 -0.118277 0.0551587 0.235319 
0.259029 0.245797 0.696789 0.622072 
0.947128 0.0660144 0.273627 0.154011 
0.274879 0.731318 0.45788 0.424218 
0.313368 -0.0362217 -0.284872 0.905172 
0.926929 0.213626 -0.0431703 0.305455 
0.895604 0.01201 0.325206 0.3033 
0.115508 0.577388 0.641376 0.491851 
0.933132 0.322934 0.11479 -0.108639 
0.485778 0.640089 -0.0114885 0.595125 
0.976794 0.181302 -0.113833 -0.0067202 
0.700807 0.344775 -0.136155 0.609476 
0.951223 0.104973 -0.0533653 0.285146 
0.693847 0.570822 0.323098 0.297232 
0.872998 0.106465 0.203002 0.430499 
1 0.000646178 0.000193913 0.000461524 
0.464545 0.197074 0.639242 0.580284 
0.80546 0.16019 0.208233 0.531236 
0.973067 0.0554567 0.156413 0.16 
0.971933 -0.232777 0.0263861 0.0215719 
0.965869 0.1486 -0.172037 0.124173 
0.422936 0.19358 0.881935 0.076436 
0.939449 0.122841 -0.315493 0.0529963 
0.933896 0.13568 0.0158243 0.330421 
0.218235 0.323535 0.831742 0.394847 
0.500359 0.179494 0.831247 0.162638 
0.259029 0.245797 0.696789 0.622072 
0.947128 0.0660144 0.273627 0.154011 
-0.021715 0.907511 0.381801 0.173727 
0.0791464 0.764442 0.628486 0.119871 
0.892648 0.271431 0.0300968 0.358607 
0.895604 0.01201 0.325206 0.3033 
0.115508 0.577388 0.641376 0.491851 
0.215636 0.828401 0.508745 0.0918256 
0.835756 0.456128 0.0771343 0.295821 
0.955176 0.173595 -0.236858 0.0374337 
0.764649 0.199739 0.0562416 0.610125 
0.962679 0.1209 -0.059308 0.234765 
0.917962 0.197684 0.142716 0.312888 
0.872998 0.106465 0.203002 0.430499 
1 0.000646178 0.000193913 0.000461524 
0.464545 0.197074 0.639242 0.580284 
0.80546 0.16019 0.208233 0.531236 
0.973067 0.0554567 0.156413 0.16 
0.244885 0.900361 0.342442 0.110066 
0.978632 0.141323 -0.0787861 0.126882 
0.422936 0.19358 0.881935 0.076436 
0.992385 0.121637 0.0194082 -0.000866836 
0.933896 0.135683 0.0158369 0.330419 
0.218235 0.323535 0.831742 0.394847 
0.887366 -0.0880824 0.312149 0.327699 
0.259029 0.245797 0.696789 0.622072 
0.947128 0.0660144 0.273627 0.154011 
-0.0802385 0.7965 0.337135 0.495469 
0.267332 -0.0355283 -0.037169 0.962232 
0.862526 0.322923 0.277826 0.273098 
0.895604 0.01201 0.325206 0.3033 
0.115508 0.577388 0.641376 0.491851 
0.94422 -0.0209197 0.316568 -0.0882963 
0.864002 0.265686 0.0407807 0.425733 
0.927171 0.155926 -0.330308 0.0832915 
0.673397 0.40884 -0.0629948 0.612713 
0.972966 0.113912 0.070916 0.187967 
0.769132 0.538373 0.108121 0.326956 
0.872998 0.106465 0.203002 0.430499 
1 0.000646178 0.000193913 0.000461524 
0.464545 0.197074 0.639242 0.580284 
0.80546 0.16019 0.208233 0.531236 
0.973067 0.0554567 0.156413 0.16 
0.985448 -0.000458606 0.16995 0.00311352 
0.942809 0.197818 -0.242377 0.115029 
0.422936 0.19358 0.881935 0.076436 
0.946141 0.20695 -0.244746 0.0457083 
0.933896 0.135683 0.0158344 0.330419 
0.218235 0.323535 0.831742 0.394847 
0.784486 0.0119308 0.557346 0.271671 
0.259029 0.245797 0.696789 0.622072 
0.947128 0.0660144 0.273627 0.154011 
-0.0530548 0.837306 0.383791 0.385757 
0.0721818 0.618958 0.453468 0.637218 
0.886576 0.285241 0.260436 0.254545 
0.895604 0.01201 0.325206 0.3033 
0.115508 0.577388 0.641376 0.491851 
0.673093 0.651541 0.349813 -0.00839028 
0.799742 0.381644 -0.0436545 0.461361 
0.986843 0.142086 -0.071127 0.0298869 
0.652897 0.356088 -0.109582 0.659484 
0.967378 0.0390047 -0.121176 0.219033 
0.920678 0.227522 0.197132 0.248444 
0.872998 0.106465 0.203002 0.430499 
1 0.000646178 0.000193913 0.000461524 
0.464545 0.197074 0.639242 0.580284 
0.80546 0.16019 0.208233 0.531236 
0.973067 0.0554567 0.156413 0.16 
0.73475 0.625079 0.263023 -0.0154307 
0.987806 0.114432 0.0832834 0.0648679 
0.422936 0.19358 0.881935 0.076436 
0.999635 0.0209124 -0.0164591 0.00469568 
0.933896 0.135683 0.0158349 0.330419 
0.218235 0.323535 0.831742 0.394847 
0.822268 0.00687642 0.488428 0.292003 
0.259029 0.245797 0.696789 0.622072 
0.947128 0.0660144 0.273627 0.154011 
0.114949 0.809678 0.432343 0.379853 
0.241786 0.448885 0.409847 0.756351 
0.889863 0.274392 0.281653 0.231354 
0.895604 0.01201 0.325206 0.3033 
0.115508 0.577388 0.641376 0.491851 
0.82406 0.489313 0.282541 0.0408611 
0.824488 0.388943 0.180706 0.369174 
0.997984 0.0571643 0.0186911 0.0202818 
0.726008 0.278746 0.0109086 0.628565 
0.94956 0.0531351 0.230499 0.205872 
0.894099 0.242412 0.307197 0.217838 
0.872998 0.106465 0.203002 0.430499 
1 0.000646178 0.000193913 0.000461524 
0.464545 0.197074 0.639242 0.580284 
0.80546 0.16019 0.208233 0.531236 
0.973067 0.0554567 0.156413 0.16 
0.856962 0.47427 0.201098 0.0156094 
VECTORS vel double
0.000996275 -0.00182505 0.000781906 
0 0 0.000255127 
0.0186649 0.00353323 0.00474833 
-0.0104439 -0.000682041 0.000243317 
0 0 0.000239192 
-0.00382666 0.0019893 -3.35861e-05 
0 0 0.000258573 
0 0 0.000249475 
-0.00931199 0.00249118 0.00960893 
0.00122305 -7.72983e-05 -0.00303854 
-0.0702852 0.110226 0.0141941 
0 0 0.000258987 
0 0 0.000254601 
-0.0648021 0.252475 -0.0499146 
0.00110349 -0.000411542 -0.000216275 
-0.000497901 3.4524e-05 4.43106e-05 
-0.000824655 -0.00469226 -0.00203971 
0.00427039 0.00425642 0.00195755 
0.00913731 0.0189661 0.00895873 
0 0 0.000250154 
0 0 0.000254327 
0 0 0.000250617 
0 0 0.00025893 
0 0 0.000257409 
-0.0671347 -0.102343 -0.045373 
0.0056666 -0.00680034 0.00244239 
0 0 0.000516504 
0.0407328 0.0056504 -0.0100411 
-0.0078089 -0.000620136 0.000478601 
0 0 0.000485922 
0.0078028 -0.00992902 -0.000561223 
0 0 0.000523141 
0 0 0.000506209 
-0.0299845 -0.11428 -0.133223 
-0.0267978 0.0885187 -0.01948 
-0.135758 0.0955039 -0.0638993 
0 0 0.000523708 
0 0 0.000515223 
-0.0588258 0.281165 -0.342876 
0.224095 -0.154861 -0.264512 
-0.00177213 5.2766e-05 0.00129633 
-0.0559317 0.0266857 0.0152737 
-0.00384829 0.013411 -0.0101526 
0.0422787 -0.241209 -0.750911 
0 0 0.000507468 
0 0 0.000515562 
0 0 0.000507665 
0 0 0.000524134 
0 0 0.000520881 
-0.0437398 -0.219414 -0.408346 
0.0106845 -0.0167424 0.000978819 
0 0 0.000754273 
0.041154 0.00384104 -0.0199474 
0.00265469 0.000181815 0.000662963 
0 0 0.000708566 
-0.0140736 0.100175 -0.108168 
0 0 0.000764237 
0 0 0.000738396 
0.087923 0.0585482 0.0263759 
-0.016771 0.204971 -0.12846 
0.0282343 -0.11259 -0.244558 
0 0 0.000765312 
0 0 0.000752595 
-0.110125 0.167732 -0.331307 
0.429939 -0.154408 -0.486196 
-0.0100554 -0.00195755 -0.00141405 
-0.103398 0.04381 -0.00385198 
-0.0171196 0.0446899 -0.00768727 
0.279246 -0.367351 -0.755318 
0 0 0.000740312 
0 0 0.000752349 
0 0 0.000741167 
0 0 0.000765442 
0 0 0.000760858 
0.0769088 -0.447861 -0.372318 
0.000816725 -0.00964859 -9.16096e-05 
0 0 0.000960131 
0.0388926 -0.000901458 -0.0299832 
-0.000201 5.86466e-05 0.000830093 
0 0 0.000899627 
-0.055887 -0.0610398 -0.130168 
0 0 0.000973391 
0 0 0.000938139 
0.200253 0.00069446 -0.1491 
-0.0589303 0.184374 -0.165318 
0.278095 -0.137991 -0.317042 
0 0 0.000975271 
0 0 0.000958391 
-0.00207924 -0.0684368 -0.648412 
0.113237 0.0393453 -0.912954 
0.0500828 0.0157849 0.0192843 
-0.0234839 -0.0606524 -0.0274316 
-0.00782888 0.0479895 -0.0073522 
-0.021621 -0.0568636 -1.09494 
0 0 0.00094074 
0 0 0.000956547 
0 0 0.000943011 
0 0 0.000974423 
0 0 0.000968923 
0.00982394 -0.213703 -0.554465 
-0.0112891 0.0140688 -0.000261764 
0 0 0.00112971 
0.0397458 -0.00770439 -0.0251467 
-0.000136824 -3.96782e-05 0.000954538 
0 0 0.00105584 
-0.323573 0.0338403 -0.513155 
0 0 0.00114598 
0 0 0.0011018 
0.0293687 -0.143912 -0.18148 
-0.173383 -0.128989 -0.261892 
0.14386 0.0238388 -0.322844 
0 0 0.00114879 
0 0 0.00112811 
-0.0896544 0.0740326 -0.485571 
-0.0937383 0.0938671 -0.984471 
0.0798452 0.0193556 -0.00681078 
0.0416061 -0.159751 -0.0511237 
0.00570102 -0.00293567 -0.0112492 
-0.021636 0.0110121 -1.06879 
0 0 0.00110505 
0 0 0.00112421 
0 0 0.00110904 
0 0 0.00114662 
0 0 0.00114053 
-0.0411697 0.189835 -0.718205 
0.016435 0.0067622 -0.00363438 
0 0 0.0012622 
0.0431473 0.0129617 -0.00238558 
6.23643e-05 6.27539e-06 0.0010373 
0 0 0.00117729 
-0.141691 0.00852795 -0.649072 
0 0 0.00128099 
0 0 0.00122927 
-0.13725 0.00154857 -0.205446 
0.0918487 -0.0147021 -0.333821 
0.00184504 0.077308 -0.356124 
0 0 0.00128466 
0 0 0.00126081 
-0.00462328 -0.0160283 -0.54835 
-0.0143012 -0.0148585 -1.04054 
-0.0108015 -0.007153 0.0129754 
0.0206579 -0.0675917 -0.0632166 
0.0170894 -0.0109593 -0.00400665 
0.000188605 0.0917641 -1.08382 
0 0 0.00123305 
0 0 0.00125495 
0 0 0.00123863 
0 0 0.00128121 
0 0 0.00127472 
0.00149214 -0.0242875 -0.588836 
-0.105301 -0.0334531 -0.172363 
0 0 0.00135897 
-0.197455 -0.0345684 -0.0167793 
-1.13728e-05 -5.2276e-07 0.00108656 
0 0 0.0012658 
0.114217 -0.0187427 -0.871294 
0 0 0.00137967 
0 0 0.00132226 
-0.0140448 0.129596 -0.203065 
0.0273981 0.0850746 -0.395382 
-0.0548928 -0.0303175 -0.438249 
0 0 0.001384 
0 0 0.00135775 
0.0545248 -0.0550339 -0.652397 
0.0643841 0.00903074 -0.973306 
0.00134607 -0.0074038 0.0542604 
-0.084383 0.0202287 -0.0476367 
-0.00140398 0.0283809 -0.030727 
0.0585163 0.0240354 -1.08903 
0 0 0.00132645 
0 0 0.0013504 
0 0 0.00133323 
0 0 0.00137955 
0 0 0.00137278 
0.0358762 -0.0759368 -0.797993 
-0.0228799 0.0263346 -0.618554 
0 0 0.00142206 
0.0075968 0.0410597 -0.193321 
1.89139e-06 5.65464e-09 0.00111228 
0 0 0.00132347 
-0.0087005 0.00871355 -0.985212 
0 0 0.00144402 
0 0 0.0013829 
0.042402 -0.120167 -0.465591 
-0.0100384 -0.0388096 -0.271196 
0.0261397 0.0437123 -0.33276 
0 0 0.00144878 
0 0 0.00142094 
-0.0603957 0.0538625 -0.924963 
-0.0146578 0.0153662 -1.27862 
-0.0191597 -0.00959288 -0.013994 
0.0586674 0.0456487 0.027212 
-0.195207 -0.0750811 -0.0214743 
-0.0645175 -0.0228719 -1.16115 
0 0 0.00138735 
0 0 0.00141265 
0 0 0.00139487 
0 0 0.00144369 
0 0 0.00143672 
-0.0362444 0.0663433 -1.19879 
0.0513795 0.00262164 -1.07261 
0 0 0.00145315 
0.0767146 0.00376503 -0.786899 
-2.72124e-07 8.16011e-09 0.00112282 
0 0 0.0013519 
0 0 -2.49075 
0 0 0.00147572 
0 0 0.00141281 
0 0 -2.49075 
0 0 -2.49075 
-0.0311728 -0.0237014 -0.455876 
0 0 0.0014807 
0 0 0.00145207 
0.00180875 -0.0134979 -1.16549 
0 0 -2.49075 
0 0 -2.49075 
-0.0137343 -0.0138164 -0.226216 
0 0 -2.49075 
0 0 -2.49075 
0 0 0.00141738 
0 0 0.00144335 
0 0 0.00142525 
0 0 0.0014753 
0 0 0.00146822 
0.016411 -0.0374625 -1.0634 
VECTORS spin double
0.0768975 0.0246959 -0.00293815 
0 0 0 
-0.117415 0.524764 0.0115627 
0.0136584 -0.209137 -0.988123 
0 0 0 
-0.0212312 0.0226456 -0.335111 
0 0 0 
0 0 0 
0.208024 -0.447058 0.811209 
-0.0744528 0.117403 -0.024068 
-2.58863 -1.61263 0.654732 
0 0 0 
0 0 0 
-4.97155 -1.70576 -2.17371 
9.30128e-05 -0.0107928 -0.000420252 
0.014896 0.00274431 0.00571907 
0.122123 0.0179543 -0.0517837 
-0.112771 0.105707 -0.0369178 
-0.528144 0.26099 -0.0142524 
0 0 0 
0 0 0 
0 0 0 
0 0 0 
0 0 0 
2.87554 -1.72132 -0.362979 
0.0836349 0.119793 -0.0237028 
0 0 0 
0.0665438 0.0672449 0.0606674 
-0.0154684 0.261865 -4.09935e-05 
0 0 0 
0.706916 0.0309348 -0.402749 
0 0 0 
0 0 0 
2.93509 0.398886 -1.46934 
-2.06111 -0.62261 1.51725 
2.45576 -0.7833 5.41661 
0 0 0 
0 0 0 
0.0100392 -2.35302 1.0457 
2.93385 6.2009 -1.16809 
-0.0309001 -0.0392798 -0.00158119 
-1.0998 -1.73849 0.127178 
-0.232715 -0.343858 0.125426 
-6.44866 -1.40343 0.118118 
0 0 0 
0 0 0 
0 0 0 
0 0 0 
0 0 0 
6.21146 1.87245 1.78155 
0.225946 0.0140492 -0.2506 
0 0 0 
0.154772 0.116247 0.0245863 
-0.000571261 -0.0525675 2.04761e-05 
0 0 0 
-2.26947 -0.195577 0.45103 
0 0 0 
0 0 0 
-1.33114 2.44919 -1.17603 
-2.84308 0.856059 -0.449484 
5.20396 6.31462 -0.454398 
0 0 0 
0 0 0 
1.6686 1.03201 1.31592 
-2.25992 0.728952 1.60019 
0.136689 -0.291637 -0.0381109 
0.826612 0.984922 0.250787 
-0.700646 -0.00411112 0.464779 
-4.38812 0.852025 -0.379792 
0 0 0 
0 0 0 
0 0 0 
0 0 0 
0 0 0 
-3.07628 0.179345 -0.178826 
-0.516674 -0.349491 -0.279999 
0 0 0 
0.0173695 -0.0590541 -0.0257296 
0.00303166 -0.00450324 1.39524e-06 
0 0 0 
4.828 -0.0158344 -3.18957 
0 0 0 
0 0 0 
5.71083 1.1086 -1.57231 
4.83139 -2.4563 0.458381 
-6.24647 -1.9257 2.31389 
0 0 0 
0 0 0 
7.4124 2.14273 -0.649378 
-5.03305 -4.24802 1.85654 
-0.646482 2.01508 0.0526878 
1.46049 0.818908 -0.618293 
0.673205 0.245047 0.396726 
-1.11389 -0.546815 0.0154674 
0 0 0 
0 0 0 
0 0 0 
0 0 0 
0 0 0 
-2.57115 -1.06594 0.708055 
-0.188146 0.100136 0.250743 
0 0 0 
0.136842 -0.000173067 -0.292654 
-0.00106455 0.00577977 8.97662e-08 
0 0 0 
-1.38454 -7.41157 0.405085 
0 0 0 
0 0 0 
0.321144 -6.38274 -2.07805 
2.91709 -0.165159 0.416357 
1.09393 -1.495 0.403514 
0 0 0 
0 0 0 
-6.82177 -2.69662 -1.74697 
2.03688 1.49979 2.82461 
0.744534 -1.39891 -0.230063 
0.243625 1.19522 -0.474113 
0.865867 0.0903146 0.0933424 
-0.482462 0.835456 0.834678 
0 0 0 
0 0 0 
0 0 0 
0 0 0 
0 0 0 
-9.44062 0.50187 -0.502451 
0.158534 0.852558 0.374344 
0 0 0 
-0.871532 -0.190967 -0.153604 
0.000145664 -0.00179496 5.87361e-09 
0 0 0 
0.795885 6.21766 -0.646548 
0 0 0 
0 0 0 
-4.15173 3.16824 0.0376086 
-4.92358 5.78828 -0.49155 
-2.83587 -2.07395 0.909127 
0 0 0 
0 0 0 
9.15775 5.33748 1.02082 
1.12293 -0.0638791 -0.411883 
-0.101097 -0.989967 -0.293557 
-2.72983 -2.72566 -0.469889 
-0.471863 0.253677 -0.322251 
-0.565984 -0.0239863 0.00247905 
0 0 0 
0 0 0 
0 0 0 
0 0 0 
0 0 0 
11.7231 1.9135 1.29325 
0.749557 -5.46534 0.649643 
0 0 0 
2.38229 -5.97124 0.491131 
-9.872e-06 0.000320583 2.71384e-10 
0 0 0 
-0.218475 -6.06549 1.3564 
0 0 0 
0 0 0 
0.58 0.0404262 0.0771311 
3.25218 -9.3916 0.411188 
4.66136 0.744133 0.211569 
0 0 0 
0 0 0 
-7.71693 -3.26151 1.98505 
-2.15932 2.1757 -0.236503 
-0.294984 1.76348 0.629987 
0.528045 -0.0109746 0.286022 
-0.366793 -0.599584 -0.547655 
1.64883 1.16814 -0.0725771 
0 0 0 
0 0 0 
0 0 0 
0 0 0 
0 0 0 
-11.2785 -2.99349 0.710546 
-4.62818 11.8566 0.256351 
0 0 0 
-4.04723 9.80772 -0.105659 
-6.43814e-07 -5.55137e-05 1.32342e-11 
0 0 0 
-0.793581 2.5452 -0.282627 
0 0 0 
0 0 0 
5.7634 2.35991 0.500975 
0.128331 4.87398 1.16745 
-5.7192 0.56057 1.37303 
0 0 0 
0 0 0 
3.27306 2.08102 -1.08894 
2.81696 -5.41956 -0.123684 
0.895706 -3.14231 -0.166516 
-1.70623 3.75527 0.926328 
3.72027 -5.08907 0.780473 
-0.704808 -3.40944 -0.117507 
0 0 0 
0 0 0 
0 0 0 
0 0 0 
0 0 0 
4.3256 0.875518 -0.497035 
5.87499 -11.982 -1.07975 
0 0 0 
6.70651 -11.7282 -0.380175 
5.8166e-07 1.23069e-05 5.62468e-13 
0 0 0 
0 0 0 
0 0 0 
0 0 0 
0 0 0 
0 0 0 
6.18445 -1.14682 0.062213 
0 0 0 
0 0 0 
0.45568 3.15478 0.0728807 
0 0 0 
0 0 0 
6.85924 -9.25843 -0.573774 
0 0 0 
0 0 0 
0 0 0 
0 0 0 
0 0 0 
0 0 0 
0 0 0 
-1.77435 0.580342 0.400383 
VECTORS force double
-1.15624 -0.969863 -1.89818 
0 0 0.0658764 
-0.916635 5.29658 -2.54602 
-0.0863601 -0.00549417 0.015401 
0 0 0.0723223 
0.221663 0.769838 -0.482572 
0 0 0.0645177 
0 0 0.0720821 
7.10692 2.30165 -6.70755 
-1.36234 -0.59806 -6.29196 
-25.1981 -9.69986 -10.3092 
0 0 0.0626962 
0 0 0.0641809 
0.0523737 1.2314 -4.21204 
-1.5666 1.2313 -0.381402 
0.293264 -1.56334 3.75704 
1.28319 0.735679 -4.56513 
-0.674969 3.17525 -1.93173 
-1.07885 -2.67055 2.11605 
0 0 0.0715003 
0 0 0.0703868 
0 0 0.0665177 
0 0 0.0665666 
0 0 0.0648558 
-0.258559 -2.87202 -1.34362 
-0.0437623 -7.30238 -1.42786 
0 0 0.142264 
3.24273 -3.08799 -18.5594 
-0.0516137 -0.00472414 0.0363877 
0 0 0.154623 