# vtk DataFile Version 2.0
Generated by NetDEM
ASCII 
DATASET POLYDATA
POINTS 500 double
-0.41875 -0.408111 -0.46393 
-0.449104 -0.194776 -0.450021 
-0.40991 -0.00771936 -0.464105 
-0.450015 0.110503 -0.450019 
-0.438238 0.347374 -0.450065 
-0.270828 -0.429816 -0.459154 
-0.305565 -0.216267 -0.450057 
-0.193277 -0.0101012 -0.450054 
-0.172921 0.173332 -0.463924 
-0.254181 0.365681 -0.462978 
-0.0559155 -0.397089 -0.460916 
-0.14413 -0.134931 -0.450029 
-0.0550038 -0.089593 -0.44998 
0.0370881 0.179292 -0.452462 
-0.0300005 0.31953 -0.442029 
0.193282 -0.401175 -0.462874 
0.16861 -0.210336 -0.463063 
0.173303 -0.00649727 -0.462379 
0.161051 0.208336 -0.465064 
0.298058 0.402825 -0.418539 
0.450034 -0.408539 -0.450047 
0.431075 -0.302582 -0.450014 
0.336859 -0.014749 -0.450007 
0.379734 0.0891697 -0.450029 
0.371859 0.439339 -0.465058 
-0.430039 -0.40996 -0.393645 
-0.45 -0.270093 -0.384256 
-0.409011 -0.0183655 -0.386095 
-0.447701 0.174785 -0.373233 
-0.45002 0.449628 -0.450043 
-0.335261 -0.407037 -0.406179 
-0.236133 -0.153473 -0.414795 
-0.155439 -0.0991846 -0.204121 
-0.304653 0.164377 -0.465044 
-0.148512 0.403307 -0.449116 
-0.0865716 -0.390439 -0.396082 
0.312983 -0.239455 -0.119071 
-0.0346308 -0.0143794 -0.304503 
0.0273391 0.259716 -0.450157 
0.120581 0.30153 -0.427665 
0.202922 -0.414064 -0.390326 
0.165879 -0.206468 -0.389677 
0.17516 0.0155446 -0.385578 
0.197001 0.112699 -0.455805 
0.284352 0.371202 -0.324682 
0.388876 -0.450018 -0.382701 
0.436281 -0.356359 -0.365871 
0.275887 -0.208884 -0.450018 
0.449978 0.140249 -0.400505 
0.424759 0.340532 -0.456384 
-0.43517 -0.44082 -0.326091 
-0.320471 -0.206406 -0.351734 
-0.313931 -0.0221014 -0.364436 
-0.290213 0.268671 -0.450015 
-0.450043 0.274419 -0.382819 
-0.180373 -0.374076 -0.451744 
0.185292 -0.335945 -0.296512 
-0.237789 -0.0590169 -0.16408 
-0.17636 0.0788262 -0.450181 
-0.349181 0.331957 -0.334823 
0.0431634 -0.439942 -0.449554 
0.20766 -0.283021 -0.129108 
0.206986 0.0640241 -0.199726 
-0.0385408 0.221887 -0.389505 
0.25563 0.331112 -0.463874 
0.200679 -0.435396 -0.31916 
0.0519241 -0.0951803 -0.450218 
0.162073 0.0595291 -0.330406 
0.273313 0.0656649 -0.44343 
0.112974 0.139179 -0.397701 
0.310288 -0.445997 -0.450007 
0.378343 -0.217514 -0.450062 
0.380486 -0.108736 -0.450044 
0.44999 0.233686 -0.364506 
0.437817 0.256268 -0.459846 
-0.433887 -0.45284 -0.243742 
-0.175339 -0.166511 -0.336476 
-0.240054 -0.00421189 -0.352624 
-0.272306 0.0919523 -0.4038 
-0.357278 0.142021 -0.343155 
-0.158648 -0.44813 -0.392887 
-0.127967 -0.0564281 -0.390231 
-0.239487 0.0482869 -0.222023 
-0.0551511 0.127326 -0.443668 
-0.355128 0.379302 -0.407115 
0.0937847 -0.452689 -0.355749 
0.449945 -0.331314 -0.0703234 
-0.186791 -0.235257 -0.450007 
0.0183131 0.0471606 -0.450159 
0.0669519 0.397605 -0.409244 
0.263146 -0.447105 -0.242521 
0.155766 -0.318603 -0.39968 
0.123945 0.0656015 -0.267227 
0.263424 0.175329 -0.443572 
0.144886 0.450024 -0.45003 
0.350797 -0.31354 -0.336563 
0.449995 -0.10733 -0.37821 
0.386239 0.162425 -0.326726 
0.330697 0.308512 -0.412254 
0.434334 0.370247 -0.376483 
-0.388641 -0.439816 -0.168998 
-0.368058 -0.362452 -0.117 
-0.294152 -0.0402326 -0.272451 
-0.369241 0.0679638 -0.40927 
-0.449203 0.427163 -0.352634 
-0.26475 -0.438578 -0.363396 
-0.0669937 -0.148067 -0.369736 
-0.24885 0.0383653 -0.122971 
-0.0076981 -0.0231335 -0.394818 
-0.4222 0.242624 -0.464083 
0.0826537 -0.342313 -0.440711 
0.355189 -0.211259 -0.0329113 
0.0281461 -0.118397 -0.349083 
0.0308025 0.0434448 -0.354746 
-0.00275888 0.43704 -0.464467 
0.303462 -0.387747 -0.210934 
0.260878 -0.31211 -0.428047 
0.0411509 0.0700763 -0.257298 
0.242315 0.237125 -0.379763 
0.349361 0.450023 -0.267209 
0.337269 -0.409182 -0.307347 
0.450046 -0.209474 -0.380886 
0.45 -0.0318698 -0.450007 
0.336457 0.209429 -0.400042 
0.397686 0.451669 -0.372218 
-0.461995 -0.452463 -0.123872 
-0.320276 -0.139298 -0.277563 
-0.451104 -0.0310835 -0.317233 
-0.249725 0.188434 -0.390255 
-0.308739 0.447147 -0.353848 
-0.161603 -0.375827 -0.335537 
-0.0840701 -0.217316 -0.450007 
-0.192054 -0.158792 -0.132664 
-0.13519 0.147559 -0.396963 
-0.22955 0.329396 -0.394357 
-0.0918788 -0.310535 -0.451244 
0.290963 -0.31985 -0.0630005 
0.449494 0.0527437 -0.158826 
0.0481476 0.120276 -0.328588 
-0.113355 0.31257 -0.403151 
0.170735 -0.428571 -0.229079 
0.238398 -0.14183 -0.390624 
0.110977 -0.0235875 -0.214006 
0.1966 0.306925 -0.338224 
0.202137 0.384983 -0.396126 
0.450004 -0.442407 -0.303928 
0.335484 -0.176376 -0.369637 
0.249536 -0.0644342 -0.450014 
0.449942 0.0525676 -0.352439 
0.44007 0.403234 -0.297352 
-0.44154 -0.4574 -0.00535702 
-0.228558 -0.170763 -0.251885 
-0.423267 -0.114089 -0.404616 
-0.206888 0.272492 -0.330043 
-0.335401 0.236694 -0.366747 
-0.138419 -0.290424 -0.349013 
0.130396 -0.450004 -0.0892813 
-0.30515 0.360807 -0.16228 
-0.106029 0.275922 -0.323418 
-0.221538 0.4503 -0.417973 
-0.00189554 -0.339971 -0.353179 
0.120768 -0.23539 -0.142736 
-0.166995 -0.0711206 -0.299374 
0.0206728 0.198646 -0.297407 
0.0083748 0.294246 -0.343801 
0.0793685 -0.414231 -0.272397 
0.13565 -0.0965365 -0.397281 
0.257517 -0.118509 -0.259489 
0.230142 0.183907 -0.321728 
0.140978 0.449344 -0.35012 
0.389867 -0.227738 -0.303207 
0.34541 -0.0748755 -0.362755 
0.322649 0.060936 -0.372521 
0.400194 0.301249 -0.309895 
0.44592 0.376318 -0.208701 
-0.32911 -0.44254 -0.0482577 
-0.44786 -0.0983035 -0.25921 
-0.354614 0.0115377 -0.236224 
-0.449999 0.0668042 -0.349006 
-0.419492 0.260323 -0.288714 
-0.26885 -0.307088 -0.446932 
-0.178009 -0.276817 -0.231734 
-0.144321 0.397475 -0.0662174 
-0.127414 0.188989 -0.333127 
-0.141688 0.441702 -0.344455 
0.00762319 -0.435853 -0.355666 
0.0151069 -0.0978923 -0.252095 
0.0158244 -0.224115 -0.450007 
-0.0306724 0.270051 -0.242084 
-0.0062398 0.412475 -0.369373 
0.0771608 -0.426073 -0.170026 
0.0950741 -0.0419542 -0.329232 
0.292913 -0.160558 -0.181718 
0.204111 0.138089 -0.262154 
0.249576 0.449936 -0.27379 
0.45001 -0.308722 -0.279026 
0.450005 -0.148692 -0.287172 
0.364922 0.0410366 -0.284143 
0.316891 0.245966 -0.305215 
0.382002 0.427089 -0.190833 
-0.241425 -0.446296 -0.117924 
-0.443204 0.229912 -0.196523 
-0.295441 0.195139 -0.179745 
-0.191479 0.0768865 -0.341226 
-0.380208 0.449999 -0.283971 
-0.223851 -0.349828 -0.237487 
-0.0441377 -0.26294 -0.298871 
0.0148527 -0.244056 -0.220382 
-0.159044 0.116241 -0.250665 
-0.167705 0.352262 -0.326186 
-0.0436258 -0.388108 -0.288875 
-0.172617 -0.102156 0.210915 
-0.0277095 0.204432 -0.161722 
-0.0577895 0.119679 -0.298926 
0.106706 0.36156 -0.321793 
0.273339 -0.431827 -0.129896 
0.217886 -0.197633 -0.308582 
0.294685 -0.106094 -0.111742 
0.151289 0.229484 -0.284548 
0.211816 0.341859 -0.246275 
0.412958 -0.380948 -0.220631 
0.446155 -0.227678 -0.220571 
0.437386 -0.0365085 -0.30876 
0.304378 0.120605 -0.287354 
0.406142 0.406025 -0.117873 
-0.247004 -0.332354 -0.145112 
-0.415777 -0.335055 -0.316373 
-0.428855 0.326393 -0.113508 
-0.339258 0.321707 -0.0476885 
-0.448903 0.4289 -0.000403697 
-0.139957 -0.416137 -0.246651 
-0.0544163 0.135016 -0.0562345 
-0.259752 -0.177144 -0.0147479 
-0.184941 0.176675 -0.179385 
-0.159289 0.337448 -0.217701 
-0.0589113 -0.385221 -0.201896 
-0.137355 -0.141471 0.00676033 
-0.113578 -0.0277986 -0.147928 
-0.000717493 0.111726 -0.189981 
0.0249173 0.446106 -0.275926 
0.297925 -0.321908 -0.162197 
0.249075 -0.295887 -0.338667 
0.353494 -0.0506436 -0.0624456 
0.156035 0.271006 -0.210778 
0.207547 0.407655 -0.125458 
0.365616 -0.450021 -0.165962 
0.449089 -0.198873 -0.0650165 
0.336042 0.130589 0.00584296 
0.450004 0.152254 -0.168683 
0.427373 0.389735 -0.0364482 
-0.298263 -0.318207 -0.347894 
-0.117357 -0.204279 -0.26428 
-0.324208 -0.0231197 -0.1394 
-0.219595 0.209369 -0.253547 
-0.425283 0.444736 -0.194878 
-0.247935 -0.429293 -0.228663 
0.0992922 -0.285538 -0.304494 
-0.308995 0.257353 -0.11798 
-0.247722 0.30258 -0.195432 
-0.150923 0.441296 -0.23139 
0.0178809 -0.380865 -0.156253 
0.449999 -0.389372 0.015802 
0.0785154 0.437765 -0.178907 
-0.0731333 0.406352 -0.318672 
-0.0364985 0.447657 -0.213264 
0.354448 -0.396584 -0.0779067 
0.374046 -0.0986347 -0.160544 
0.197077 -0.0287786 -0.284274 
0.223252 0.198904 -0.190993 
0.0873424 0.238012 -0.366482 
0.354795 -0.294865 -0.237904 
0.356218 -0.148628 -0.25211 
0.45002 0.0838709 -0.253833 
0.448225 0.21714 -0.265905 
0.409805 0.449119 -0.0013896 
-0.335661 -0.394271 0.0286829 
-0.139456 -0.345314 -0.121362 
-0.432486 -0.11225 -0.17515 
-0.450012 0.094843 -0.165988 
-0.347315 0.197248 -0.260371 
-0.145051 -0.442532 -0.153702 
-0.0610296 -0.294423 -0.163725 
-0.231141 0.449878 -0.290834 
-0.28165 0.31301 -0.278652 
-0.205128 0.434749 -0.145628 
0.0406136 -0.406486 -0.0700318 
-0.11543 0.449998 0.13389 
0.0293168 0.182993 -0.0824266 
-0.0694538 0.308234 -0.183996 
0.00683806 0.36999 -0.1711 
0.268048 -0.424363 -0.0195746 
0.0277643 -0.0895809 0.00495854 
0.14629 -0.0361168 -0.128117 
0.28746 0.175922 -0.132402 
0.0746006 0.250038 -0.142807 
0.407165 -0.283018 -0.146959 
0.450003 -0.15315 -0.154032 
0.333377 -0.0521258 -0.266132 
0.45001 0.275416 -0.184643 
0.30217 0.413966 -0.0698711 
-0.287548 -0.353713 -0.0549142 
-0.415541 0.00145556 -0.17534 
-0.392901 -0.298537 -0.0560776 
-0.429072 0.136702 -0.273697 
-0.450008 0.450003 -0.0981237 
-0.157923 -0.428087 -0.0537493 
-0.141626 -0.321748 -0.0241229 
-0.282823 0.0892341 -0.302295 
-0.134379 0.277753 -0.102724 
-0.250326 0.379158 -0.0745476 
-0.0215453 -0.426263 -0.00840869 
-0.407104 -0.173811 -0.313877 
0.00774144 -0.00366647 -0.214562 
-0.0431149 0.292193 -0.0762255 
-0.0101997 0.443561 -0.121118 
0.155143 -0.392176 -0.00822487 
0.453246 0.00345364 0.0220475 
0.0750477 -0.0286763 -0.0603297 
0.304172 0.336248 -0.193577 
0.280766 0.450009 -0.178784 
0.372975 -0.450002 -0.00444358 
0.441164 -0.0403162 0.103191 
0.247026 -0.0606001 -0.34791 
0.349354 0.252265 -0.181596 
0.440064 0.453227 0.0876528 
-0.337325 -0.205159 0.0537502 
-0.386206 -0.269966 -0.15038 
-0.420853 0.102455 -0.0841215 
-0.387961 0.313129 -0.191739 
-0.449997 0.369709 -0.270798 
-0.172494 -0.433573 0.0613355 
-0.0565062 -0.15031 -0.20603 
-0.224003 0.288995 -0.073728 
-0.101297 0.381568 -0.152843 
-0.0773249 0.43726 -0.0311536 
-0.0908729 -0.445521 0.0388061 
0.0783565 -0.166909 -0.216568 
-0.0665862 0.0655466 -0.127126 
0.0313746 0.249491 -0.0196045 
0.00734002 0.424271 -0.0451975 
0.136125 -0.334653 -0.0748827 
0.17698 -0.188612 -0.223242 
0.130209 0.15113 -0.16912 
0.312715 0.221618 -0.0475021 
0.172918 0.450001 -0.209537 
0.450004 -0.414639 -0.125611 
0.323716 -0.268662 0.0427129 
0.413287 -0.0236769 -0.212562 
0.370762 0.166308 -0.228025 
0.425467 0.270284 0.219913 
-0.421524 -0.38367 0.073892 
-0.450001 -0.215272 -0.233621 
-0.365833 0.217622 -0.0666878 
-0.448576 0.0635829 0.00800107 
-0.450014 0.19612 -0.102632 
-0.226206 -0.379602 0.0107918 
-0.277085 -0.115247 -0.0913294 
-0.321428 -0.113735 -0.180922 
-0.188968 0.358764 0.0182363 
-0.129864 0.398991 0.0388655 
0.0441427 -0.18448 -0.111437 
-0.149955 -0.246552 -0.109743 
0.220233 0.13674 -0.0586054 
0.105001 0.313274 -0.00924391 
-0.0205178 0.43918 0.0497987 
0.0766619 -0.213083 -0.000642773 
0.455257 -0.0767139 -0.096954 
0.281735 0.061284 -0.00841693 
0.193042 0.223754 -0.0966226 
0.103603 0.335989 0.100517 
0.398262 -0.0766206 0.0204455 
0.448298 -0.268237 0.00725547 
0.366983 0.0111564 -0.120615 
0.427298 0.112776 -0.0796753 
0.328121 0.319881 -0.0972679 
-0.427112 -0.177444 -0.121476 
-0.450001 -0.244496 -0.0163146 
-0.394419 -0.00506311 -0.0804914 
-0.449987 0.282778 0.0663869 
-0.350321 0.448497 -0.128802 
-0.238598 -0.306132 0.0749966 
-0.272926 -0.275984 -0.00731715 
-0.32605 0.0636696 -0.0356007 
-0.121105 0.217985 -0.0343787 
-0.124859 0.193872 0.0508502 
0.0269365 -0.313215 0.000299569 
-0.122232 -0.105197 -0.0852037 
0.114679 0.11272 -0.0782581 
-0.156587 0.107604 -0.119118 
0.0419322 0.415394 0.12797 
0.0379606 -0.291257 -0.129216 
0.288394 -0.0734964 0.0116905 
0.269868 0.022838 -0.0820643 
0.185378 0.280369 -0.0170158 
0.155226 0.323383 -0.138029 
0.328226 -0.336833 0.115773 
0.258888 -0.176165 -0.0561106 
0.416381 0.18693 -0.013491 
0.412673 0.232751 -0.102286 
0.43769 0.263882 0.0760947 
-0.334863 -0.353322 0.114546 
-0.33881 -0.221649 -0.223951 
-0.447604 -0.059175 -0.0113067 
-0.449999 0.134088 0.0790645 
-0.279121 0.364471 0.0197979 
-0.0597279 -0.181424 -0.118184 
-0.178305 -0.232603 0.00248709 
-0.231016 0.00640617 -0.029929 
-0.288921 0.217182 0.00758916 
-0.205554 0.410814 0.110296 
0.211945 -0.057309 -0.0852004 
0.00287589 -0.0837658 -0.15386 
-0.121646 -0.0349418 0.157213 
-0.0193766 0.240855 0.063375 
-0.0717863 0.351915 0.100208 
0.301866 -0.441311 0.0944779 
0.327748 -0.21346 0.129302 
0.179806 0.0405164 -0.115238 
0.263711 0.290562 0.0322714 
0.241651 0.450002 0.00517269 
0.446386 -0.163888 0.0286635 
0.315743 0.363542 0.0125525 
0.449128 0.0885833 0.0148627 
0.429658 0.161065 0.0821713 
0.385121 0.370646 0.0838731 
-0.402052 -0.397559 0.158874 
-0.440423 -0.264837 0.0811155 
-0.196258 -0.0739516 -0.0522255 
-0.445084 0.267814 -0.0330401 
-0.389765 0.355345 0.0326328 
-0.210012 -0.393062 0.113764 
-0.240962 -0.011493 0.159413 
-0.0413083 -0.0100528 -0.0667456 
-0.287242 0.145851 -0.0756766 
-0.284882 0.400352 0.184041 
0.199977 -0.417719 0.0785489 
0.121846 -0.130476 -0.110757 
0.0340915 0.0517936 -0.110019 
-0.088872 0.105827 0.0873242 
-0.041568 0.416163 0.179585 
0.30539 -0.406566 0.18933 
0.207718 -0.115582 0.0126569 
0.0947789 0.194189 0.031158 
0.26905 0.173515 0.180885 
0.1578 0.416749 -0.0392164 
0.407783 -0.449899 0.0893008 
0.334714 -0.164157 0.0529635 
-0.157872 0.0766227 0.16191 
0.379437 0.207055 0.155395 
0.309995 0.452821 0.0908923 
-0.439823 -0.450694 0.196564 
-0.34358 0.0497388 0.111987 
-0.40012 0.0018336 0.0554394 
-0.422391 0.160984 -0.0131972 
-0.450005 0.416699 0.0988391 
-0.297109 -0.450266 0.0963871 
-0.238783 -0.152808 0.0799451 
-0.174122 0.033429 0.0477246 
-0.375957 0.132532 0.151082 
-0.432096 0.40589 0.218227 
0.229702 -0.292283 0.226788 
-0.0448135 -0.147517 -0.03815 
-0.0899093 0.0616899 0.00173796 
0.0224678 0.32771 0.0461853 
0.011881 0.320986 0.15062 
0.195997 -0.245574 -0.0394656 
0.219911 -0.303081 0.0754133 
0.198653 -0.0124777 -1.31038e-05 
0.193028 0.172176 0.0301956 
0.0805261 0.425792 0.023597 
0.412967 -0.3742 0.154436 
0.449863 -0.158613 0.128478 
0.349681 0.00873529 0.0392302 
0.269994 0.165459 0.0895993 
0.43994 0.35547 0.159387 
-0.315422 -0.320429 0.186709 
-0.202076 -0.0575922 0.0781723 
-0.431038 -0.00315971 0.169143 
-0.365338 0.223247 0.0720069 
-0.366547 0.445219 0.14596 
-0.182291 -0.244088 0.102716 
-0.203756 -0.188121 0.170425 
-0.0864894 -0.0150619 0.0657364 
-0.31747 0.306659 0.135329 
-0.226748 0.228589 0.0915252 
-0.038477 -0.109206 0.0768989 
-0.0141153 -0.251621 -0.0555659 
0.0124296 0.00311664 0.0165471 
0.241618 -0.153325 0.105852 
0.0141913 0.447299 0.240227 
0.2203 -0.394166 0.193832 
0.441006 -0.320052 0.230899 
0.311679 0.0618292 0.122688 
0.175755 0.246102 0.0891111 
0.18032 0.365235 0.0434543 
0.39649 -0.407579 0.247249 
0.448411 -0.192534 0.222563 
0.351216 -0.0720643 0.133487 
0.398512 0.100607 0.155475 
0.221629 0.420189 0.123709 
VERTICES 500 1000
1 0
1 1
1 2
1 3
1 4
1 5
1 6
1 7
1 8
1 9
1 10
1 11
1 12
1 13
1 14
1 15
1 16
1 17
1 18
1 19
1 20
1 21
1 22
1 23
1 24
1 25
1 26
1 27
1 28
1 29
1 30
1 31
1 32
1 33
1 34
1 35
1 36
1 37
1 38
1 39
1 40
1 41
1 42
1 43
1 44
1 45
1 46
1 47
1 48
1 49
1 50
1 51
1 52
1 53
1 54
1 55
1 56
1 57
1 58
1 59
1 60
1 61
1 62
1 63
1 64
1 65
1 66
1 67
1 68
1 69
1 70
1 71
1 72
1 73
1 74
1 75
1 76
1 77
1 78
1 79
1 80
1 81
1 82
1 83
1 84
1 85
1 86
1 87
1 88
1 89
1 90
1 91
1 92
1 93
1 94
1 95
1 96
1 97
1 98
1 99
1 100
1 101
1 102
1 103
1 104
1 105
1 106
1 107
1 108
1 109
1 110
1 111
1 112
1 113
1 114
1 115
1 116
1 117
1 118
1 119
1 120
1 121
1 122
1 123
1 124
1 125
1 126
1 127
1 128
1 129
1 130
1 131
1 132
1 133
1 134
1 135
1 136
1 137
1 138
1 139
1 140
1 141
1 142
1 143
1 144
1 145
1 146
1 147
1 148
1 149
1 150
1 151
1 152
1 153
1 154
1 155
1 156
1 157
1 158
1 159
1 160
1 161
1 162
1 163
1 164
1 165
1 166
1 167
1 168
1 169
1 170
1 171
1 172
1 173
1 174
1 175
1 176
1 177
1 178
1 179
1 180
1 181
1 182
1 183
1 184
1 185
1 186
1 187
1 188
1 189
1 190
1 191
1 192
1 193
1 194
1 195
1 196
1 197
1 198
1 199
1 200
1 201
1 202
1 203
1 204
1 205
1 206
1 207
1 208
1 209
1 210
1 211
1 212
1 213
1 214
1 215
1 216
1 217
1 218
1 219
1 220
1 221
1 222
1 223
1 224
1 225
1 226
1 227
1 228
1 229
1 230
1 231
1 232
1 233
1 234
1 235
1 236
1 237
1 238
1 239
1 240
1 241
1 242
1 243
1 244
1 245
1 246
1 247
1 248
1 249
1 250
1 251
1 252
1 253
1 254
1 255
1 256
1 257
1 258
1 259
1 260
1 261
1 262
1 263
1 264
1 265
1 266
1 267
1 268
1 269
1 270
1 271
1 272
1 273
1 274
1 275
1 276
1 277
1 278
1 279
1 280
1 281
1 282
1 283
1 284
1 285
1 286
1 287
1 288
1 289
1 290
1 291
1 292
1 293
1 294
1 295
1 296
1 297
1 298
1 299
1 300
1 301
1 302
1 303
1 304
1 305
1 306
1 307
1 308
1 309
1 310
1 311
1 312
1 313
1 314
1 315
1 316
1 317
1 318
1 319
1 320
1 321
1 322
1 323
1 324
1 325
1 326
1 327
1 328
1 329
1 330
1 331
1 332
1 333
1 334
1 335
1 336
1 337
1 338
1 339
1 340
1 341
1 342
1 343
1 344
1 345
1 346
1 347
1 348
1 349
1 350
1 351
1 352
1 353
1 354
1 355
1 356
1 357
1 358
1 359
1 360
1 361
1 362
1 363
1 364
1 365
1 366
1 367
1 368
1 369
1 370
1 371
1 372
1 373
1 374
1 375
1 376
1 377
1 378
1 379
1 380
1 381
1 382
1 383
1 384
1 385
1 386
1 387
1 388
1 389
1 390
1 391
1 392
1 393
1 394
1 395
1 396
1 397
1 398
1 399
1 400
1 401
1 402
1 403
1 404
1 405
1 406
1 407
1 408
1 409
1 410
1 411
1 412
1 413
1 414
1 415
1 416
1 417
1 418
1 419
1 420
1 421
1 422
1 423
1 424
1 425
1 426
1 427
1 428
1 429
1 430
1 431
1 432
1 433
1 434
1 435
1 436
1 437
1 438
1 439
1 440
1 441
1 442
1 443
1 444
1 445
1 446
1 447
1 448
1 449
1 450
1 451
1 452
1 453
1 454
1 455
1 456
1 457
1 458
1 459
1 460
1 461
1 462
1 463
1 464
1 465
1 466
1 467
1 468
1 469
1 470
1 471
1 472
1 473
1 474
1 475
1 476
1 477
1 478
1 479
1 480
1 481
1 482
1 483
1 484
1 485
1 486
1 487
1 488
1 489
1 490
1 491
1 492
1 493
1 494
1 495
1 496
1 497
1 498
1 499
POINT_DATA 500
SCALARS id int 1
LOOKUP_TABLE default
0
1
2
3
4
5
6
7
8
9
10
11
12
13
14
15
16
17
18
19
20
21
22
23
24
25
26
27
28
29
30
31
32
33
34
35
36
37
38
39
40
41
42
43
44
45
46
47
48
49
50
51
52
53
54
55
56
57
58
59
60
61
62
63
64
65
66
67
68
69
70
71
72
73
74
75
76
77
78
79
80
81
82
83
84
85
86
87
88
89
90
91
92
93
94
95
96
97
98
99
100
101
102
103
104
105
106
107
108
109
110
111
112
113
114
115
116
117
118
119
120
121
122
123
124
125
126
127
128
129
130
131
132
133
134
135
136
137
138
139
140
141
142
143
144
145
146
147
148
149
150
151
152
153
154
155
156
157
158
159
160
161
162
163
164
165
166
167
168
169
170
171
172
173
174
175
176
177
178
179
180
181
182
183
184
185
186
187
188
189
190
191
192
193
194
195
196
197
198
199
200
201
202
203
204
205
206
207
208
209
210
211
212
213
214
215
216
217
218
219
220
221
222
223
224
225
226
227
228
229
230
231
232
233
234
235
236
237
238
239
240
241
242
243
244
245
246
247
248
249
250
251
252
253
254
255
256
257
258
259
260
261
262
263
264
265
266
267
268
269
270
271
272
273
274
275
276
277
278
279
280
281
282
283
284
285
286
287
288
289
290
291
292
293
294
295
296
297
298
299
300
301
302
303
304
305
306
307
308
309
310
311
312
313
314
315
316
317
318
319
320
321
322
323
324
325
326
327
328
329
330
331
332
333
334
335
336
337
338
339
340
341
342
343
344
345
346
347
348
349
350
351
352
353
354
355
356
357
358
359
360
361
362
363
364
365
366
367
368
369
370
371
372
373
374
375
376
377
378
379
380
381
382
383
384
385
386
387
388
389
390
391
392
393
394
395
396
397
398
399
400
401
402
403
404
405
406
407
408
409
410
411
412
413
414
415
416
417
418
419
420
421
422
423
424
425
426
427
428
429
430
431
432
433
434
435
436
437
438
439
440
441
442
443
444
445
446
447
448
449
450
451
452
453
454
455
456
457
458
459
460
461
462
463
464
465
466
467
468
469
470
471
472
473
474
475
476
477
478
479
480
481
482
483
484
485
486
487
488
489
490
491
492
493
494
495
496
497
498
499
SCALARS type int 1
LOOKUP_TABLE default
0
0
0
0
0
0
0
0
0
0
0
0
0
0
0
0
0
0
0
0
0
0
0
0
0
0
0
0
0
0
0
0
0
0
0
0
0
0
0
0
0
0
0
0
0
0
0
0
0
0
0
0
0
0
0
0
0
0
0
0
0
0
0
0
0
0
0
0
0
0
0
0
0
0
0
0
0
0
0
0
0
0
0
0
0
0
0
0
0
0
0
0
0
0
0
0
0
0
0
0
0
0
0
0
0
0
0
0
0
0
0
0
0
0
0
0
0
0
0
0
0
0
0
0
0
0
0
0
0
0
0
0
0
0
0
0
0
0
0
0
0
0
0
0
0
0
0
0
0
0
0
0
0
0
0
0
0
0
0
0
0
0
0
0
0
0
0
0
0
0
0
0
0
0
0
0
0
0
0
0
0
0
0
0
0
0
0
0
0
0
0
0
0
0
0
0
0
0
0
0
0
0
0
0
0
0
0
0
0
0
0
0
0
0
0
0
0
0
0
0
0
0
0
0
0
0
0
0
0
0
0
0
0
0
0
0
0
0
0
0
0
0
0
0
0
0
0
0
0
0
0
0
0
0
0
0
0
0
0
0
0
0
0
0
0
0
0
0
0
0
0
0
0
0
0
0
0
0
0
0
0
0
0
0
0
0
0
0
0
0
0
0
0
0
0
0
0
0
0
0
0
0
0
0
0
0
0
0
0
0
0
0
0
0
0
0
0
0
0
0
0
0
0
0
0
0
0
0
0
0
0
0
0
0
0
0
0
0
0
0
0
0
0
0
0
0
0
0
0
0
0
0
0
0
0
0
0
0
0
0
0
0
0
0
0
0
0
0
0
0
0
0
0
0
0
0
0
0
0
0
0
0
0
0
0
0
0
0
0
0
0
0
0
0
0
0
0
0
0
0
0
0
0
0
0
0
0
0
0
0
0
0
0
0
0
0
0
0
0
0
0
0
0
0
0
0
0
0
0
0
0
0
0
0
0
0
0
0
0
0
0
0
0
0
0
0
0
0
0
0
0
0
0
0
0
0
0
0
0
0
0
0
0
0
0
0
0
0
0
0
0
0
0
0
0
0
0
0
0
0
0
0
0
0
0
0
0
0
0
0
0
0
0
0
0
0
0
0
0
0
SCALARS damp_viscous double 1
LOOKUP_TABLE default
0
0
0
0
0
0
0
0
0
0
0
0
0
0
0
0
0
0
0
0
0
0
0
0
0
0
0
0
0
0
0
0
0
0
0
0
0
0
0
0
0
0
0
0
0
0
0
0
0
0
0
0
0
0
0
0
0
0
0
0
0
0
0
0
0
0
0
0
0
0
0
0
0
0
0
0
0
0
0
0
0
0
0
0
0
0
0
0
0
0
0
0
0
0
0
0
0
0
0
0
0
0
0
0
0
0
0
0
0
0
0
0
0
0
0
0
0
0
0
0
0
0
0
0
0
0
0
0
0
0
0
0
0
0
0
0
0
0
0
0
0
0
0
0
0
0
0
0
0
0
0
0
0
0
0
0
0
0
0
0
0
0
0
0
0
0
0
0
0
0
0
0
0
0
0
0
0
0
0
0
0
0
0
0
0
0
0
0
0
0
0
0
0
0
0
0
0
0
0
0
0
0
0
0
0
0
0
0
0
0
0
0
0
0
0
0
0
0
0
0
0
0
0
0
0
0
0
0
0
0
0
0
0
0
0
0
0
0
0
0
0
0
0
0
0
0
0
0
0
0
0
0
0
0
0
0
0
0
0
0
0
0
0
0
0
0
0
0
0
0
0
0
0
0
0
0
0
0
0
0
0
0
0
0
0
0
0
0
0
0
0
0
0
0
0
0
0
0
0
0
0
0
0
0
0
0
0
0
0
0
0
0
0
0
0
0
0
0
0
0
0
0
0
0
0
0
0
0
0
0
0
0
0
0
0
0
0
0
0
0
0
0
0
0
0
0
0
0
0
0
0
0
0
0
0
0
0
0
0
0
0
0
0
0
0
0
0
0
0
0
0
0
0
0
0
0
0
0
0
0
0
0
0
0
0
0
0
0
0
0
0
0
0
0
0
0
0
0
0
0
0
0
0
0
0
0
0
0
0
0
0
0
0
0
0
0
0
0
0
0
0
0
0
0
0
0
0
0
0
0
0
0
0
0
0
0
0
0
0
0
0
0
0
0
0
0
0
0
0
0
0
0
0
0
0
0
0
0
0
0
0
0
0
0
0
0
0
0
0
0
0
0
0
0
0
0
0
0
0
0
0
0
0
0
0
0
0
0
0
0
0
0
0
0
0
0
0
0
0
0
SCALARS damp_numerical double 1
LOOKUP_TABLE default
0.5
0.5
0.5
0.5
0.5
0.5
0.5
0.5
0.5
0.5
0.5
0.5
0.5
0.5
0.5
0.5
0.5
0.5
0.5
0.5
0.5
0.5
0.5
0.5
0.5
0.5
0.5
0.5
0.5
0.5
0.5
0.5
0.5
0.5
0.5
0.5
0.5
0.5
0.5
0.5
0.5
0.5
0.5
0.5
0.5
0.5
0.5
0.5
0.5
0.5
0.5
0.5
0.5
0.5
0.5
0.5
0.5
0.5
0.5
0.5
0.5
0.5
0.5
0.5
0.5
0.5
0.5
0.5
0.5
0.5
0.5
0.5
0.5
0.5
0.5
0.5
0.5
0.5
0.5
0.5
0.5
0.5
0.5
0.5
0.5
0.5
0.5
0.5
0.5
0.5
0.5
0.5
0.5
0.5
0.5
0.5
0.5
0.5
0.5
0.5
0.5
0.5
0.5
0.5
0.5
0.5
0.5
0.5
0.5
0.5
0.5
0.5
0.5
0.5
0.5
0.5
0.5
0.5
0.5
0.5
0.5
0.5
0.5
0.5
0.5
0.5
0.5
0.5
0.5
0.5
0.5
0.5
0.5
0.5
0.5
0.5
0.5
0.5
0.5
0.5
0.5
0.5
0.5
0.5
0.5
0.5
0.5
0.5
0.5
0.5
0.5
0.5
0.5
0.5
0.5
0.5
0.5
0.5
0.5
0.5
0.5
0.5
0.5
0.5
0.5
0.5
0.5
0.5
0.5
0.5
0.5
0.5
0.5
0.5
0.5
0.5
0.5
0.5
0.5
0.5
0.5
0.5
0.5
0.5
0.5
0.5
0.5
0.5
0.5
0.5
0.5
0.5
0.5
0.5
0.5
0.5
0.5
0.5
0.5
0.5
0.5
0.5
0.5
0.5
0.5
0.5
0.5
0.5
0.5
0.5
0.5
0.5
0.5
0.5
0.5
0.5
0.5
0.5
0.5
0.5
0.5
0.5
0.5
0.5
0.5
0.5
0.5
0.5
0.5
0.5
0.5
0.5
0.5
0.5
0.5
0.5
0.5
0.5
0.5
0.5
0.5
0.5
0.5
0.5
0.5
0.5
0.5
0.5
0.5
0.5
0.5
0.5
0.5
0.5
0.5
0.5
0.5
0.5
0.5
0.5
0.5
0.5
0.5
0.5
0.5
0.5
0.5
0.5
0.5
0.5
0.5
0.5
0.5
0.5
0.5
0.5
0.5
0.5
0.5
0.5
0.5
0.5
0.5
0.5
0.5
0.5
0.5
0.5
0.5
0.5
0.5
0.5
0.5
0.5
0.5
0.5
0.5
0.5
0.5
0.5
0.5
0.5
0.5
0.5
0.5
0.5
0.5
0.5
0.5
0.5
0.5
0.5
0.5
0.5
0.5
0.5
0.5
0.5
0.5
0.5
0.5
0.5
0.5
0.5
0.5
0.5
0.5
0.5
0.5
0.5
0.5
0.5
0.5
0.5
0.5
0.5
0.5
0.5
0.5
0.5
0.5
0.5
0.5
0.5
0.5
0.5
0.5
0.5
0.5
0.5
0.5
0.5
0.5
0.5
0.5
0.5
0.5
0.5
0.5
0.5
0.5
0.5
0.5
0.5
0.5
0.5
0.5
0.5
0.5
0.5
0.5
0.5
0.5
0.5
0.5
0.5
0.5
0.5
0.5
0.5
0.5
0.5
0.5
0.5
0.5
0.5
0.5
0.5
0.5
0.5
0.5
0.5
0.5
0.5
0.5
0.5
0.5
0.5
0.5
0.5
0.5
0.5
0.5
0.5
0.5
0.5
0.5
0.5
0.5
0.5
0.5
0.5
0.5
0.5
0.5
0.5
0.5
0.5
0.5
0.5
0.5
0.5
0.5
0.5
0.5
0.5
0.5
0.5
0.5
0.5
0.5
0.5
0.5
0.5
0.5
0.5
0.5
0.5
0.5
0.5
0.5
0.5
0.5
0.5
0.5
0.5
0.5
0.5
0.5
0.5
0.5
0.5
0.5
0.5
0.5
0.5
0.5
0.5
0.5
0.5
0.5
0.5
0.5
0.5
0.5
0.5
0.5
0.5
0.5
0.5
0.5
0.5
0.5
0.5
0.5
0.5
0.5
0.5
0.5
0.5
0.5
0.5
0.5
0.5
0.5
0.5
0.5
0.5
0.5
0.5
0.5
0.5
0.5
0.5
0.5
0.5
0.5
0.5
0.5
0.5
SCALARS quat double 4
LOOKUP_TABLE default
0.963626 0.0884728 -0.050929 0.246991 
0.780919 0.157897 0.604314 0.00623056 
0.988283 0.0829188 -0.0869349 -0.0941418 
-0.372455 -0.469031 -0.562059 -0.570418 
0.0526086 0.714631 -0.371188 0.590555 
0.802314 -0.271913 -0.200825 0.49196 
0.142972 -0.332809 -0.266112 0.893298 
0.883551 0.037811 0.327147 0.332989 
-0.110535 0.436509 0.892819 -0.0107578 
0.113286 0.0869446 -0.0285145 0.98934 
0.9138 -0.154461 -0.103324 0.361158 
0.180146 -0.914375 -0.24424 -0.267979 
0.0993032 0.391608 -0.0322117 0.914191 
0.589537 0.71935 0.355923 -0.0911097 
0.344303 0.813884 -0.169098 0.436412 
0.996486 0.0757466 -0.0356472 -0.00278786 
0.641507 0.0452725 -0.0456447 0.764419 
0.98486 0.0835656 -0.0152356 0.151112 
0.971612 0.113162 -0.0896104 0.187442 
-0.77849 0.140672 0.605134 0.0893163 
0.837814 0.117339 0.506926 -0.165304 
-0.326643 0.831006 -0.304203 0.331956 
0.798388 -0.22168 -0.498679 -0.254467 
0.551576 0.732649 -0.371809 -0.144039 
0.984221 0.105005 -0.0992885 0.102101 
0.93804 0.15402 -0.168944 0.260415 
-0.574631 0.732986 -0.291032 0.218705 
0.98116 0.160402 -0.0682612 -0.0832873 
0.609362 -0.470254 -0.417826 0.482659 
-0.16384 0.394484 -0.328223 0.842501 
0.728618 0.360795 0.511916 0.27728 
0.424681 -0.641588 -0.141802 -0.622818 
0.10015 -0.0502926 -0.958707 0.261385 
0.180519 0.124747 0.0725716 0.972926 
0.569422 0.714162 0.200088 -0.354537 
0.38434 -0.135488 0.0723204 0.910327 
-0.288362 0.473763 -0.47264 0.684841 
0.231597 0.33922 0.271409 0.87042 
0.721858 -0.639353 -0.258229 0.0588695 
0.571108 0.652621 -0.0963261 -0.488511 
0.946596 0.15537 -0.157697 0.234409 
0.70459 0.198639 -0.101921 0.673578 
0.979179 -0.198639 -0.0373702 0.0188521 
0.0108482 0.820338 0.551161 -0.15215 
0.720546 -0.575836 -0.330542 -0.19992 
0.359635 0.252095 -0.719457 0.538045 
0.556428 -0.177826 0.179392 -0.79157 
-0.946499 0.162705 -0.17461 0.217206 
0.449687 0.758645 -0.36561 0.297604 
-0.83865 0.509714 0.106449 -0.159771 
0.926738 0.30032 -0.206547 -0.0911215 
0.324014 -0.112728 0.904291 -0.254095 
0.828467 -0.0509282 0.557563 0.0131537 
-0.676546 0.416636 -0.606239 -0.0342623 
-0.492935 0.511092 0.476944 -0.518 
-0.613817 0.459403 0.483956 -0.421858 
0.148149 0.206361 0.9586 -0.128658 
0.131489 -0.0429474 -0.823166 -0.550694 
-0.186529 0.0223552 0.78711 -0.587507 
0.347379 -0.912543 -0.213386 0.0325339 
-0.45581 0.238347 0.660848 -0.546541 
-0.861588 -0.0640443 0.0979146 0.493941 
-0.269659 -0.713274 0.137583 0.632135 
0.0664568 0.241762 0.96082 0.118146 
-0.102658 0.0330562 0.992805 -0.0520367 
0.921248 0.245718 -0.263532 -0.146549 
-0.135253 -0.952642 -0.170009 0.212782 
0.965588 -0.153725 -0.128499 0.165822 
0.896682 -0.00306521 0.405302 -0.177994 
-0.914811 -0.103631 -0.123201 -0.37041 
0.61867 -0.330486 -0.237551 0.672009 
-0.553664 -0.753412 -0.34479 -0.0833454 
0.359581 0.352438 0.0310372 -0.863438 
-0.5805 0.752295 -0.291547 -0.109877 
0.94671 -0.247384 0.0190871 -0.205369 
0.960231 0.120733 -0.121645 -0.220412 
0.525704 -0.106053 -0.635506 0.555446 
0.882918 -0.245583 0.384511 -0.110887 
-0.551678 -0.211123 -0.13372 0.795737 
-0.551384 0.174876 -0.122475 -0.80647 
0.883712 0.284174 -0.0195303 -0.371371 
-0.385128 0.879205 -0.0101894 0.280305 
0.957241 -0.0808712 0.264305 -0.0853906 
-0.23442 0.818738 -0.277388 0.444715 
0.980736 -0.179308 9.93626e-05 -0.0774939 
0.770005 -0.464493 -0.402878 0.17038 
-0.177439 -0.313733 0.130272 -0.923643 
0.815078 0.363397 0.30245 -0.334834 
0.318219 0.925028 0.075004 -0.193481 
-0.165858 0.556816 -0.641514 0.500906 
0.874091 -0.205072 0.342833 -0.276363 
-0.815089 0.370279 -0.445529 0.00523919 
0.891653 -0.0165987 -0.380579 0.244618 
0.863078 -0.330423 0.380068 0.0382749 
0.794017 0.0206329 0.366947 -0.484212 
0.383915 -0.531626 -0.301354 -0.69222 
0.317675 -0.785276 0.472082 0.244054 
0.230635 -0.190687 -0.721305 0.624632 
-0.609911 0.596707 0.120233 -0.507438 
0.984493 -0.0854751 -0.0227573 -0.151488 
0.844088 -0.0713406 -0.10902 -0.520136 
0.280842 0.541023 0.736783 0.292527 
0.000200487 0.437113 -0.89841 0.0423337 
-0.635817 -0.598688 -0.478665 -0.0904944 
-0.221415 -0.0934561 -0.36397 0.899871 
0.934575 -0.151344 0.277117 0.16392 
-0.700488 0.529394 0.156766 -0.452198 
0.118551 0.722421 0.672141 -0.110814 
0.820196 0.392071 -0.0707105 -0.410559 
0.0246843 0.210049 -0.97509 0.0668622 
0.280534 -0.591966 -0.280455 0.701586 
-0.438127 -0.309961 0.613317 0.579492 
-0.0849214 -0.426541 0.270806 -0.858787 
0.808584 -0.272025 0.491035 0.176294 
-0.230333 0.0687649 0.0948513 0.966034 
0.956976 -0.154462 0.230719 0.0843094 
0.0502152 -0.803548 0.581991 0.114351 
0.465475 -0.0773424 -0.393395 0.789045 
0.885107 0.0880277 0.0960892 0.44677 
0.258643 0.14875 -0.807094 0.509487 
0.00346145 0.057273 0.481485 -0.874574 
-0.135775 -0.259541 -0.701304 0.649905 
0.343134 -0.45163 -0.417312 -0.710028 
-0.933792 -0.228505 -0.177898 0.210168 
0.766175 -0.587905 0.031904 0.257537 
0.781083 0.287986 -0.532001 -0.154755 
0.419722 0.637662 0.549703 -0.339186 
0.52247 0.291432 0.177721 -0.78135 
-0.520128 0.273481 0.786799 -0.188742 
0.446264 -0.448224 0.697569 0.336661 
-0.0105142 0.489785 0.731206 -0.474697 
-0.988177 -0.016005 -0.0495786 0.144194 
-0.022551 -0.584066 -0.811343 0.00901714 
0.212545 0.203746 -0.948819 0.114253 
0.142114 -0.896817 0.252353 0.334427 
0.119406 -0.0831858 0.819098 0.554887 
0.278561 0.730149 0.219991 0.583858 
-0.689804 -0.71567 0.0682964 -0.0855726 
0.321274 0.906865 -0.178898 -0.205848 
-0.0406834 0.813681 -0.579613 0.0177968 
-0.561098 0.1088 -0.8202 0.0245679 
0.442388 -0.242241 0.327376 0.799022 
-0.0904296 0.506489 -0.0944788 0.852271 
0.940713 -0.256757 -0.180204 0.12908 
0.030346 -0.506416 -0.779647 -0.367113 
-0.461874 -0.830318 0.231128 0.209344 
0.7404 -0.496345 0.355606 -0.281057 
0.271296 -0.561533 0.147749 -0.767626 