# vtk DataFile Version 2.0
Generated by NetDEM
ASCII 
DATASET POLYDATA
POINTS 100 double
-0.40417 -0.403633 -0.455665 
-0.403333 -0.203333 -0.450367 
-0.403998 -0.00399844 -0.45976 
-0.40295 0.19705 -0.450412 
-0.402763 0.397237 -0.450347 
-0.203656 -0.404575 -0.439349 
-0.203538 -0.203538 -0.45034 
-0.203218 -0.00321788 -0.450376 
-0.20232 0.196182 -0.44769 
-0.204124 0.396057 -0.447221 
-0.00430226 -0.40387 -0.443978 
-0.00366947 -0.203669 -0.450328 
-0.00360232 -0.00360232 -0.450334 
-0.00137673 0.197557 -0.442955 
-0.0037578 0.397027 -0.444135 
0.197698 -0.402302 -0.458063 
0.195043 -0.204379 -0.451321 
0.196242 -0.002822 -0.447841 
0.196461 0.19812 -0.444549 
0.196913 0.396913 -0.450311 
0.396713 -0.403287 -0.450371 
0.39661 -0.20339 -0.450286 
0.396488 -0.00351175 -0.450343 
0.396508 0.196508 -0.450345 
0.397065 0.396432 -0.442201 
-0.403633 -0.403633 -0.13184 
-0.403333 -0.203333 -0.131539 
-0.403998 -0.00399844 -0.132205 
-0.40295 0.19705 -0.131157 
-0.402763 0.397237 -0.13097 
-0.203099 -0.403099 -0.131306 
-0.203538 -0.203538 -0.131745 
-0.203218 -0.00321788 -0.131425 
-0.203937 0.196063 -0.132144 
-0.203347 0.396653 -0.131554 
-0.00292062 -0.402921 -0.131127 
-0.00366947 -0.203669 -0.131876 
-0.00360232 -0.00360232 -0.131809 
-0.00217008 0.19783 -0.130377 
-0.00266816 0.397332 -0.130875 
0.197698 -0.402302 -0.130509 
0.196222 -0.203778 -0.131985 
0.197391 -0.00260897 -0.130816 
0.197198 0.197198 -0.131009 
0.196913 0.396913 -0.131294 
0.396713 -0.403287 -0.131494 
0.39661 -0.20339 -0.131597 
0.396488 -0.00351175 -0.131719 
0.396508 0.196508 -0.131699 
0.396534 0.396534 -0.131673 
-0.403633 -0.403633 0.146665 
-0.403333 -0.203333 0.146965 
-0.403998 -0.00399844 0.146299 
-0.40295 0.19705 0.147347 
-0.402763 0.397237 0.147535 
-0.203099 -0.403099 0.147199 
-0.203538 -0.203538 0.14676 
-0.203218 -0.00321788 0.14708 
-0.203937 0.196063 0.14636 
-0.203347 0.396653 0.146951 
-0.00292062 -0.402921 0.147377 
-0.00366947 -0.203669 0.146628 
-0.00360232 -0.00360232 0.146695 
-0.00217008 0.19783 0.148128 
-0.00266816 0.397332 0.14763 
0.197698 -0.402302 0.147996 
0.196222 -0.203778 0.14652 
0.197391 -0.00260897 0.147689 
0.197198 0.197198 0.147496 
0.196913 0.396913 0.147211 
0.396713 -0.403287 0.14701 
0.39661 -0.20339 0.146907 
0.396488 -0.00351175 0.146786 
0.396508 0.196508 0.146806 
0.396534 0.396534 0.146831 
-0.403633 -0.403633 0.376119 
-0.403333 -0.203333 0.37642 
-0.403998 -0.00399844 0.375754 
-0.40295 0.19705 0.376802 
-0.402763 0.397237 0.376989 
-0.203099 -0.403099 0.376653 
-0.203538 -0.203538 0.376214 
-0.203218 -0.00321788 0.376534 
-0.203937 0.196063 0.375815 
-0.203347 0.396653 0.376405 
-0.00292062 -0.402921 0.376832 
-0.00366947 -0.203669 0.376083 
-0.00360232 -0.00360232 0.37615 
-0.00217008 0.19783 0.377582 
-0.00266816 0.397332 0.377084 
0.197698 -0.402302 0.37745 
0.196222 -0.203778 0.375974 
0.197391 -0.00260897 0.377143 
0.197198 0.197198 0.37695 
0.196913 0.396913 0.376665 
0.396713 -0.403287 0.376465 
0.39661 -0.20339 0.376362 
0.396488 -0.00351175 0.376241 
0.396508 0.196508 0.37626 
0.396534 0.396534 0.376286 
VERTICES 100 200
1 0
1 1
1 2
1 3
1 4
1 5
1 6
1 7
1 8
1 9
1 10
1 11
1 12
1 13
1 14
1 15
1 16
1 17
1 18
1 19
1 20
1 21
1 22
1 23
1 24
1 25
1 26
1 27
1 28
1 29
1 30
1 31
1 32
1 33
1 34
1 35
1 36
1 37
1 38
1 39
1 40
1 41
1 42
1 43
1 44
1 45
1 46
1 47
1 48
1 49
1 50
1 51
1 52
1 53
1 54
1 55
1 56
1 57
1 58
1 59
1 60
1 61
1 62
1 63
1 64
1 65
1 66
1 67
1 68
1 69
1 70
1 71
1 72
1 73
1 74
1 75
1 76
1 77
1 78
1 79
1 80
1 81
1 82
1 83
1 84
1 85
1 86
1 87
1 88
1 89
1 90
1 91
1 92
1 93
1 94
1 95
1 96
1 97
1 98
1 99
POINT_DATA 100
SCALARS id int 1
LOOKUP_TABLE default
0
1
2
3
4
5
6
7
8
9
10
11
12
13
14
15
16
17
18
19
20
21
22
23
24
25
26
27
28
29
30
31
32
33
34
35
36
37
38
39
40
41
42
43
44
45
46
47
48
49
50
51
52
53
54
55
56
57
58
59
60
61
62
63
64
65
66
67
68
69
70
71
72
73
74
75
76
77
78
79
80
81
82
83
84
85
86
87
88
89
90
91
92
93
94
95
96
97
98
99
SCALARS type int 1
LOOKUP_TABLE default
0
0
0
0
0
0
0
0
0
0
0
0
0
0
0
0
0
0
0
0
0
0
0
0
0
0
0
0
0
0
0
0
0
0
0
0
0
0
0
0
0
0
0
0
0
0
0
0
0
0
0
0
0
0
0
0
0
0
0
0
0
0
0
0
0
0
0
0
0
0
0
0
0
0
0
0
0
0
0
0
0
0
0
0
0
0
0
0
0
0
0
0
0
0
0
0
0
0
0
0
SCALARS damp_viscous double 1
LOOKUP_TABLE default
0
0
0
0
0
0
0
0
0
0
0
0
0
0
0
0
0
0
0
0
0
0
0
0
0
0
0
0
0
0
0
0
0
0
0
0
0
0
0
0
0
0
0
0
0
0
0
0
0
0
0
0
0
0
0
0
0
0
0
0
0
0
0
0
0
0
0
0
0
0
0
0
0
0
0
0
0
0
0
0
0
0
0
0
0
0
0
0
0
0
0
0
0
0
0
0
0
0
0
0
SCALARS damp_numerical double 1
LOOKUP_TABLE default
0.5
0.5
0.5
0.5
0.5
0.5
0.5
0.5
0.5
0.5
0.5
0.5
0.5
0.5
0.5
0.5
0.5
0.5
0.5
0.5
0.5
0.5
0.5
0.5
0.5
0.5
0.5
0.5
0.5
0.5
0.5
0.5
0.5
0.5
0.5
0.5
0.5
0.5
0.5
0.5
0.5
0.5
0.5
0.5
0.5
0.5
0.5
0.5
0.5
0.5
0.5
0.5
0.5
0.5
0.5
0.5
0.5
0.5
0.5
0.5
0.5
0.5
0.5
0.5
0.5
0.5
0.5
0.5
0.5
0.5
0.5
0.5
0.5
0.5
0.5
0.5
0.5
0.5
0.5
0.5
0.5
0.5
0.5
0.5
0.5
0.5
0.5
0.5
0.5
0.5
0.5
0.5
0.5
0.5
0.5
0.5
0.5
0.5
0.5
0.5
SCALARS quat double 4
LOOKUP_TABLE default
0.988735 0.112345 0.073561 0.06611 
0.422936 0.19358 0.881935 0.076436 
0.999938 0.00834925 0.00519597 0.00514693 
0.933896 0.135683 0.0158348 0.330419 
0.218235 0.323535 0.831742 0.394847 
0.824572 0.0162612 0.481033 0.29736 
0.259029 0.245797 0.696789 0.622072 
0.947128 0.0660144 0.273627 0.154011 
0.107132 0.814991 0.435966 0.366395 
0.242726 0.444723 0.40277 0.762287 
0.909767 0.197971 0.302733 0.203677 
0.895604 0.01201 0.325206 0.3033 
0.115508 0.577388 0.641376 0.491851 
0.832002 0.486364 0.261848 0.051569 
0.825095 0.38739 0.171333 0.373889 
0.997984 0.0571643 0.0186911 0.0202818 
0.733334 0.289591 0.119173 0.603453 
0.952227 0.0526328 0.218007 0.207285 
0.89801 0.23254 0.303416 0.217812 
0.872998 0.106465 0.203002 0.430499 
1 0.000646178 0.000193913 0.000461524 
0.464545 0.197074 0.639242 0.580284 
0.80546 0.16019 0.208233 0.531236 
0.973067 0.0554567 0.156413 0.16 
0.855267 0.476081 0.204122 0.0141227 
0.987695 0.113077 0.0865597 0.064658 
0.422936 0.19358 0.881935 0.076436 
0.999938 0.00834925 0.00519597 0.00514693 
0.933896 0.135683 0.0158348 0.330419 
0.218235 0.323535 0.831742 0.394847 
0.822268 0.00687642 0.488428 0.292003 
0.259029 0.245797 0.696789 0.622072 
0.947128 0.0660144 0.273627 0.154011 
0.114949 0.809678 0.432343 0.379853 
0.241786 0.448885 0.409847 0.756351 
0.907485 0.19221 0.316201 0.198854 
0.895604 0.01201 0.325206 0.3033 
0.115508 0.577388 0.641376 0.491851 
0.835101 0.483927 0.255872 0.054317 
0.824488 0.388943 0.180706 0.369174 
0.997984 0.0571643 0.0186911 0.0202818 
0.733928 0.293165 0.134605 0.597734 
0.94956 0.0531351 0.230499 0.205872 
0.894099 0.242412 0.307197 0.217838 
0.872998 0.106465 0.203002 0.430499 
1 0.000646178 0.000193913 0.000461524 
0.464545 0.197074 0.639242 0.580284 
0.80546 0.16019 0.208233 0.531236 
0.973067 0.0554567 0.156413 0.16 
0.85666 0.475253 0.200024 0.0160836 
0.987695 0.113077 0.0865597 0.064658 
0.422936 0.19358 0.881935 0.076436 
0.999938 0.00834925 0.00519597 0.00514693 
0.933896 0.135683 0.0158348 0.330419 
0.218235 0.323535 0.831742 0.394847 
0.822268 0.00687642 0.488428 0.292003 
0.259029 0.245797 0.696789 0.622072 
0.947128 0.0660144 0.273627 0.154011 
0.114949 0.809678 0.432343 0.379853 
0.241786 0.448885 0.409847 0.756351 
0.907485 0.19221 0.316201 0.198854 
0.895604 0.01201 0.325206 0.3033 
0.115508 0.577388 0.641376 0.491851 
0.835101 0.483927 0.255872 0.054317 
0.824488 0.388943 0.180706 0.369174 
0.997984 0.0571643 0.0186911 0.0202818 
0.733928 0.293165 0.134605 0.597734 
0.94956 0.0531351 0.230499 0.205872 
0.894099 0.242412 0.307197 0.217838 
0.872998 0.106465 0.203002 0.430499 
1 0.000646178 0.000193913 0.000461524 
0.464545 0.197074 0.639242 0.580284 
0.80546 0.16019 0.208233 0.531236 
0.973067 0.0554567 0.156413 0.16 
0.85666 0.475253 0.200024 0.0160836 
0.987695 0.113077 0.0865597 0.064658 
0.422936 0.19358 0.881935 0.076436 
0.999938 0.00834925 0.00519597 0.00514693 
0.933896 0.135683 0.0158348 0.330419 
0.218235 0.323535 0.831742 0.394847 
0.822268 0.00687642 0.488428 0.292003 
0.259029 0.245797 0.696789 0.622072 
0.947128 0.0660144 0.273627 0.154011 
0.114949 0.809678 0.432343 0.379853 
0.241786 0.448885 0.409847 0.756351 
0.907485 0.19221 0.316201 0.198854 
0.895604 0.01201 0.325206 0.3033 
0.115508 0.577388 0.641376 0.491851 
0.835101 0.483927 0.255872 0.054317 
0.824488 0.388943 0.180706 0.369174 
0.997984 0.0571643 0.0186911 0.0202818 
0.733928 0.293165 0.134605 0.597734 
0.94956 0.0531351 0.230499 0.205872 
0.894099 0.242412 0.307197 0.217838 
0.872998 0.106465 0.203002 0.430499 
1 0.000646178 0.000193913 0.000461524 
0.464545 0.197074 0.639242 0.580284 
0.80546 0.16019 0.208233 0.531236 
0.973067 0.0554567 0.156413 0.16 
0.85666 0.475253 0.200024 0.0160836 
VECTORS vel double
-0.646006 -0.00716663 -0.0208292 
0 0 0.412256 
0 0 -3.5208 
0 0 0.434076 
0 0 0.375815 
-0.0904333 -0.242469 0.0143546 
0 0 0.377717 
0 0 0.402901 
0.429669 0.0318501 -0.0274024 
-0.22611 -0.175379 0.0925006 
-0.283951 -0.194991 -0.0427327 
0 0 0.384158 
0 0 0.381068 
0.171177 -0.0588427 0.0112049 
-0.242413 -0.0672986 -0.00350474 
0 0 -3.5208 
-0.542928 -0.291381 0.0336183 
-0.41921 -0.0800201 0.11321 
-0.17195 0.215816 0.0155941 
0 0 0.350003 
0 0 0.40884 
0 0 0.32532 
0 0 0.37632 
0 0 0.375091 
0.0977066 -0.018828 0.00641606 
0 0 -3.0303 
0 0 -3.0303 
0 0 -3.0303 
0 0 -3.0303 
0 0 -3.0303 
0 0 -3.0303 
0 0 -3.0303 
0 0 -3.0303 
0 0 -3.0303 
0 0 -3.0303 
0 0 -3.0303 
0 0 -3.0303 
0 0 -3.0303 
0 0 -3.0303 
0 0 -3.0303 
0 0 -3.0303 
0 0 -3.0303 
0 0 -3.0303 
0 0 -3.0303 
0 0 -3.0303 
0 0 -3.0303 
0 0 -3.0303 
0 0 -3.0303 
0 0 -3.0303 
0 0 -3.0303 
0 0 -2.5398 
0 0 -2.5398 
0 0 -2.5398 
0 0 -2.5398 
0 0 -2.5398 
0 0 -2.5398 
0 0 -2.5398 
0 0 -2.5398 
0 0 -2.5398 
0 0 -2.5398 
0 0 -2.5398 
0 0 -2.5398 
0 0 -2.5398 
0 0 -2.5398 
0 0 -2.5398 
0 0 -2.5398 
0 0 -2.5398 
0 0 -2.5398 
0 0 -2.5398 
0 0 -2.5398 
0 0 -2.5398 
0 0 -2.5398 
0 0 -2.5398 
0 0 -2.5398 
0 0 -2.5398 
0 0 -2.0493 
0 0 -2.0493 
0 0 -2.0493 
0 0 -2.0493 
0 0 -2.0493 
0 0 -2.0493 
0 0 -2.0493 
0 0 -2.0493 
0 0 -2.0493 
0 0 -2.0493 
0 0 -2.0493 
0 0 -2.0493 
0 0 -2.0493 
0 0 -2.0493 
0 0 -2.0493 
0 0 -2.0493 
0 0 -2.0493 
0 0 -2.0493 
0 0 -2.0493 
0 0 -2.0493 
0 0 -2.0493 
0 0 -2.0493 
0 0 -2.0493 
0 0 -2.0493 
0 0 -2.0493 
VECTORS spin double
0.228187 -12.154 0.0916194 
0 0 0 
0 0 0 
0 0 0 
0 0 0 
3.86213 -1.44938 -0.218879 
0 0 0 
0 0 0 
-0.0864967 6.48951 0.767935 
2.41622 -3.09543 -0.166248 
3.0423 -4.40079 -0.0647378 
0 0 0 
0 0 0 
0.923832 2.57555 0.0372738 
0.910988 -3.69168 0.211454 
0 0 0 
3.37076 -7.40646 0.498649 
0.949564 -5.34385 0.0613733 
-3.25945 -2.48016 0.396301 
0 0 0 
0 0 0 
0 0 0 
0 0 0 
0 0 0 
0.308359 1.53946 0.0254387 
0 0 0 
0 0 0 
0 0 0 
0 0 0 
0 0 0 
0 0 0 
0 0 0 
0 0 0 
0 0 0 
0 0 0 
0 0 0 
0 0 0 
0 0 0 
0 0 0 
0 0 0 
0 0 0 
0 0 0 
0 0 0 
0 0 0 
0 0 0 
0 0 0 
0 0 0 
0 0 0 
0 0 0 
0 0 0 
0 0 0 
0 0 0 
0 0 0 
0 0 0 
0 0 0 
0 0 0 
0 0 0 
0 0 0 
0 0 0 
0 0 0 
0 0 0 
0 0 0 
0 0 0 
0 0 0 
0 0 0 
0 0 0 
0 0 0 
0 0 0 
0 0 0 
0 0 0 
0 0 0 
0 0 0 
0 0 0 
0 0 0 
0 0 0 
0 0 0 
0 0 0 
0 0 0 
0 0 0 
0 0 0 
0 0 0 
0 0 0 
0 0 0 
0 0 0 
0 0 0 
0 0 0 
0 0 0 
0 0 0 
0 0 0 
0 0 0 
0 0 0 
0 0 0 
0 0 0 
0 0 0 
0 0 0 
0 0 0 
0 0 0 
0 0 0 
0 0 0 
0 0 0 
VECTORS force double
-549.322 -22.432 427.416 
0 0 -215.192 
0 0 -13.6117 
0 0 -161.939 
0 0 -165.668 
1.33519 3.88684 -14.0072 
0 0 -188.672 
0 0 -165.887 
-93.9887 -7.85152 -221.09 
44.3316 36.2479 -194.482 
55.6461 39.3553 -193.191 
0 0 -236.313 
0 0 -213.372 
-20.5391 5.08341 -79.4664 
37.6681 14.0877 -102.074 
0 0 -13.6117 
98.4054 59.0013 -192.04 
82.3476 17.3398 -218.502 
25.0963 -33.0681 -127.249 
0 0 -186.063 
0 0 -197.227 
0 0 -182.783 
0 0 -178.494 
0 0 -170.333 
-7.4438 0.80208 -44.7721 
0 0 -13.6117 
0 0 -13.6117 
0 0 -13.6117 
0 0 -13.6117 
0 0 -13.6117 
0 0 -13.6117 
0 0 -13.6117 
0 0 -13.6117 
0 0 -13.6117 
0 0 -13.6117 
0 0 -13.6117 
0 0 -13.6117 
0 0 -13.6117 
0 0 -13.6117 
0 0 -13.6117 
0 0 -13.6117 
0 0 -13.6117 
0 0 -13.6117 
0 0 -13.6117 
0 0 -13.6117 
0 0 -13.6117 
0 0 -13.6117 
0 0 -13.6117 
0 0 -13.6117 
0 0 -13.6117 
0 0 -13.6117 
0 0 -13.6117 
0 0 -13.6117 
0 0 -13.6117 
0 0 -13.6117 
0 0 -13.6117 
0 0 -13.6117 
0 0 -13.6117 
0 0 -13.6117 
0 0 -13.6117 
0 0 -13.6117 
0 0 -13.6117 
0 0 -13.6117 
0 0 -13.6117 
0 0 -13.6117 
0 0 -13.6117 
0 0 -13.6117 
0 0 -13.6117 
0 0 -13.6117 
0 0 -13.6117 
0 0 -13.6117 
0 0 -13.6117 
0 0 -13.6117 
0 0 -13.6117 
0 0 -13.6117 
0 0 -13.6117 
0 0 -13.6117 
0 0 -13.6117 
0 0 -13.6117 
0 0 -13.6117 
0 0 -13.6117 
0 0 -13.6117 
0 0 -13.6117 
0 0 -13.6117 
0 0 -13.6117 
0 0 -13.6117 
0 0 -13.6117 
0 0 -13.6117 
0 0 -13.6117 
0 0 -13.6117 
0 0 -13.6117 
0 0 -13.6117 
0 0 -13.6117 
0 0 -13.6117 
0 0 -13.6117 
0 0 -13.6117 
0 0 -13.6117 
0 0 -13.6117 
0 0 -13.6117 
0 0 -13.6117 
VECTORS moment double
-0.708424 9.48622 -0.399881 
0 0 0 
0 0 0 
0 0 0 
0 0 0 
0.23639 -0.080802 0.00394782 
0 0 0 
0 0 0 
0.0364625 -0.415655 -0.00078821 
0.191294 -0.234831 -0.000175558 
-0.221513 0.28653 -0.00584616 
0 0 0 
0 0 0 
0.0901838 0.456819 0.00713549 
0.309734 -0.763185 0.0103495 
0 0 0 
-0.0602645 -0.0261957 -0.0418989 
-0.00195274 -0.0409828 -0.0042532 
-0.47267 -0.348527 -0.00296696 
0 0 0 
0 0 0 
0 0 0 
0 0 0 
0 0 0 
0.0162718 0.229748 0.0020267 
0 0 0 
0 0 0 
0 0 0 
0 0 0 
0 0 0 
0 0 0 
0 0 0 
0 0 0 
0 0 0 
0 0 0 
0 0 0 
0 0 0 
0 0 0 
0 0 0 
0 0 0 
0 0 0 
0 0 0 
0 0 0 
0 0 0 
0 0 0 
0 0 0 
0 0 0 
0 0 0 
0 0 0 
0 0 0 
0 0 0 
0 0 0 
0 0 0 
0 0 0 
0 0 0 
0 0 0 
0 0 0 
0 0 0 
0 0 0 
0 0 0 
0 0 0 
0 0 0 
0 0 0 
0 0 0 
0 0 0 
0 0 0 
0 0 0 
0 0 0 
0 0 0 
0 0 0 
0 0 0 
0 0 0 
0 0 0 
0 0 0 
0 0 0 
0 0 0 
0 0 0 
0 0 0 
0 0 0 
0 0 0 
0 0 0 
0 0 0 
0 0 0 
0 0 0 
0 0 0 
0 0 0 
0 0 0 
0 0 0 
0 0 0 
0 0 0 
0 0 0 
0 0 0 
0 0 0 
0 0 0 
0 0 0 
0 0 0 
0 0 0 
0 0 0 
0 0 0 
0 0 0 
SCALARS shape_id int 1
LOOKUP_TABLE default
0
1
0
1
1
0
1
1
0
0
0
1
1
0
0
0
0
0
0
1
1
1
1
1
0
0
1
0
1
1
0
1
1
0
0
0
1
1
0
0
0
0
0
0
1
1
1
1
1
0
0
1
0
1
1
0
1
1
0
0
0
1
1
0
0
0
0
0
0
1
1
1
1
1
0
0
1
0
1
1
0
1
1
0
0
0
1
1
0
0
0
0
0
0
1
1
1
1
1
0
SCALARS size double 1
LOOKUP_TABLE default
0.1
0.1
0.1
0.1
0.1
0.1
0.1
0.1
0.1
0.1
0.1
0.1
0.1
0.1
0.1
0.1
0.1
0.1
0.1
0.1
0.1
0.1
0.1
0.1
0.1
0.1
0.1
0.1
0.1
0.1
0.1
0.1
0.1
0.1
0.1
0.1
0.1
0.1
0.1
0.1
0.1
0.1
0.1
0.1
0.1
0.1
0.1
0.1
0.1
0.1
0.1
0.1
0.1
0.1
0.1
0.1
0.1
0.1
0.1
0.1
0.1
0.1
0.1
0.1
0.1
0.1
0.1
0.1
0.1
0.1
0.1
0.1
0.1
0.1
0.1
0.1
0.1
0.1
0.1
0.1
0.1
0.1
0.1
0.1
0.1
0.1
0.1
0.1
0.1
0.1
0.1
0.1
0.1
0.1
0.1
0.1
0.1
0.1
0.1
0.1
SCALARS mass double 1
LOOKUP_TABLE default
1.38754
1.38754
1.38754
1.38754
1.38754
1.38754
1.38754
1.38754
1.38754
1.38754
1.38754
1.38754
1.38754
1.38754
1.38754
1.38754
1.38754
1.38754
1.38754
1.38754
1.38754
1.38754
1.38754
1.38754
1.38754
1.38754
1.38754
1.38754
1.38754
1.38754
1.38754
1.38754
1.38754
1.38754
1.38754
1.38754
1.38754
1.38754
1.38754
1.38754
1.38754
1.38754
1.38754
1.38754
1.38754
1.38754
1.38754
1.38754
1.38754
1.38754
1.38754
1.38754
1.38754
1.38754
1.38754
1.38754
1.38754
1.38754
1.38754
1.38754
1.38754
1.38754
1.38754
1.38754
1.38754
1.38754
1.38754
1.38754
1.38754
1.38754
1.38754
1.38754
1.38754
1.38754
1.38754
1.38754
1.38754
1.38754
1.38754
1.38754
1.38754
1.38754
1.38754
1.38754
1.38754
1.38754
1.38754
1.38754
1.38754
1.38754
1.38754
1.38754
1.38754
1.38754
1.38754
1.38754
1.38754
1.38754
1.38754
1.38754
VECTORS moi double
0.00116818 0.00159003 0.00189584 
0.00138754 0.00138754 0.00138754 
0.00116818 0.00159003 0.00189584 
0.00138754 0.00138754 0.00138754 
0.00138754 0.00138754 0.00138754 
0.00116818 0.00159003 0.00189584 
0.00138754 0.00138754 0.00138754 
0.00138754 0.00138754 0.00138754 
0.00116818 0.00159003 0.00189584 
0.00116818 0.00159003 0.00189584 
0.00116818 0.00159003 0.00189584 
0.00138754 0.00138754 0.00138754 
0.00138754 0.00138754 0.00138754 
0.00116818 0.00159003 0.00189584 
0.00116818 0.00159003 0.00189584 
0.00116818 0.00159003 0.00189584 
0.00116818 0.00159003 0.00189584 
0.00116818 0.00159003 0.00189584 
0.00116818 0.00159003 0.00189584 
0.00138754 0.00138754 0.00138754 
0.00138754 0.00138754 0.00138754 
0.00138754 0.00138754 0.00138754 
0.00138754 0.00138754 0.00138754 
0.00138754 0.00138754 0.00138754 
0.00116818 0.00159003 0.00189584 
0.00116818 0.00159003 0.00189584 
0.00138754 0.00138754 0.00138754 
0.00116818 0.00159003 0.00189584 
0.00138754 0.00138754 0.00138754 
0.00138754 0.00138754 0.00138754 
0.00116818 0.00159003 0.00189584 
0.00138754 0.00138754 0.00138754 
0.00138754 0.00138754 0.00138754 
0.00116818 0.00159003 0.00189584 
0.00116818 0.00159003 0.00189584 
0.00116818 0.00159003 0.00189584 
0.00138754 0.00138754 0.00138754 
0.00138754 0.00138754 0.00138754 
0.00116818 0.00159003 0.00189584 
0.00116818 0.00159003 0.00189584 
0.00116818 0.00159003 0.00189584 
0.00116818 0.00159003 0.00189584 
0.00116818 0.00159003 0.00189584 
0.00116818 0.00159003 0.00189584 
0.00138754 0.00138754 0.00138754 
0.00138754 0.00138754 0.00138754 
0.00138754 0.00138754 0.00138754 
0.00138754 0.00138754 0.00138754 
0.00138754 0.00138754 0.00138754 
0.00116818 0.00159003 0.00189584 
0.00116818 0.00159003 0.00189584 
0.00138754 0.00138754 0.00138754 
0.00116818 0.00159003 0.00189584 
0.00138754 0.00138754 0.00138754 
0.00138754 0.00138754 0.00138754 
0.00116818 0.00159003 0.00189584 
0.00138754 0.00138754 0.00138754 
0.00138754 0.00138754 0.00138754 
0.00116818 0.00159003 0.00189584 
0.00116818 0.00159003 0.00189584 
0.00116818 0.00159003 0.00189584 
0.00138754 0.00138754 0.00138754 
0.00138754 0.00138754 0.00138754 
0.00116818 0.00159003 0.00189584 
0.00116818 0.00159003 0.00189584 
0.00116818 0.00159003 0.00189584 
0.00116818 0.00159003 0.00189584 
0.00116818 0.00159003 0.00189584 
0.00116818 0.00159003 0.00189584 
0.00138754 0.00138754 0.00138754 
0.00138754 0.00138754 0.00138754 
0.00138754 0.00138754 0.00138754 
0.00138754 0.00138754 0.00138754 
0.00138754 0.00138754 0.00138754 
0.00116818 0.00159003 0.00189584 
0.00116818 0.00159003 0.00189584 
0.00138754 0.00138754 0.00138754 
0.00116818 0.00159003 0.00189584 
0.00138754 0.00138754 0.00138754 
0.00138754 0.00138754 0.00138754 
0.00116818 0.00159003 0.00189584 
0.00138754 0.00138754 0.00138754 
0.00138754 0.00138754 0.00138754 
0.00116818 0.00159003 0.00189584 
0.00116818 0.00159003 0.00189584 
0.00116818 0.00159003 0.00189584 
0.00138754 0.00138754 0.00138754 
0.00138754 0.00138754 0.00138754 
0.00116818 0.00159003 0.00189584 
0.00116818 0.00159003 0.00189584 
0.00116818 0.00159003 0.00189584 
0.00116818 0.00159003 0.00189584 
0.00116818 0.00159003 0.00189584 
0.00116818 0.00159003 0.00189584 
0.00138754 0.00138754 0.00138754 
0.00138754 0.00138754 0.00138754 
0.00138754 0.00138754 0.00138754 
0.00138754 0.00138754 0.00138754 
0.00138754 0.00138754 0.00138754 
0.00116818 0.00159003 0.00189584 
SCALARS mask int 1
LOOKUP_TABLE default
0
0
0
0
0
0
0
0
0
0
0
0
0
0
0
0
0
0
0
0
0
0
0
0
0
0
0
0
0
0
0
0
0
0
0
0
0
0
0
0
0
0
0
0
0
0
0
0
0
0
0
0
0
0
0
0
0
0
0
0
0
0
0
0
0
0
0
0
0
0
0
0
0
0
0
0
0
0
0
0
0
0
0
0
0
0
0
0
0
0
0
0
0
0
0
0
0
0
0
0
