# vtk DataFile Version 2.0
Generated by NetDEM
ASCII 
DATASET POLYDATA
POINTS 300 double
-0.416903 -0.405407 -0.462843 
-0.403333 -0.203333 -0.465617 
-0.409968 -0.00772083 -0.46354 
-0.448847 0.174753 -0.423775 
-0.402763 0.397237 -0.465604 
-0.265486 -0.432185 -0.459405 
-0.203538 -0.203538 -0.465607 
-0.203218 -0.00321788 -0.46562 
-0.176149 0.207141 -0.457537 
-0.246796 0.369092 -0.465049 
-0.0400163 -0.396428 -0.455848 
-0.00366947 -0.203669 -0.465623 
-0.00360232 -0.00360232 -0.465612 
0.0299524 0.186046 -0.452823 
-0.0404822 0.396056 -0.464422 
0.190808 -0.397638 -0.463854 
0.173478 -0.21072 -0.464071 
0.173733 -0.00945653 -0.461881 
0.159541 0.21042 -0.464984 
0.29487 0.412091 -0.377758 
0.396804 -0.401442 -0.450006 
0.400642 -0.297088 -0.429107 
0.386245 -0.0335186 -0.449965 
0.383969 0.0662166 -0.450259 
0.370134 0.439772 -0.464725 
-0.403112 -0.399474 -0.388302 
-0.403333 -0.203333 -0.382512 
-0.406763 -0.00991349 -0.389212 
-0.449974 0.179598 -0.225181 
-0.402763 0.397237 -0.382492 
-0.304838 -0.407982 -0.387301 
-0.203538 -0.203538 -0.382495 
-0.203218 -0.00321788 -0.382519 
-0.301666 0.160801 -0.465044 
-0.156773 0.415152 -0.445226 
-0.0545354 -0.389485 -0.380914 
-0.00366947 -0.203669 -0.382522 
-0.00360232 -0.00360232 -0.382502 
0.0029393 0.255719 -0.443345 
0.0513186 0.345042 -0.441198 
0.192761 -0.395203 -0.391553 
0.178212 -0.192353 -0.38581 
0.187263 -0.0117141 -0.383751 
0.198276 0.11224 -0.455614 
0.305901 0.435746 -0.253705 
0.396692 -0.450011 -0.362598 
0.39871 -0.339287 -0.329008 
0.375519 -0.124075 -0.409997 
0.440943 0.0886532 -0.371322 
0.404837 0.357682 -0.450766 
-0.402262 -0.403287 -0.316029 
-0.403333 -0.203333 -0.299821 
-0.382668 -0.00279406 -0.311595 
-0.207689 0.268594 -0.304228 
-0.402763 0.397237 -0.299799 
-0.181423 -0.358829 -0.454293 
-0.203538 -0.203538 -0.2998 
-0.203218 -0.00321788 -0.29983 
-0.186873 0.199263 -0.378282 
-0.207375 0.450695 -0.384068 
0.0263784 -0.428464 -0.340965 
-0.00366947 -0.203669 -0.299832 
-0.00360232 -0.00360232 -0.299809 
-0.0355187 0.246727 -0.353809 
0.186699 0.354652 -0.444852 
0.181936 -0.395879 -0.318436 
0.142876 -0.156473 -0.313787 
0.189148 0.00518594 -0.30955 
0.283352 0.0625039 -0.440405 
0.0517713 0.27661 -0.307127 
0.395438 -0.430195 -0.264718 
0.396983 -0.205912 -0.357564 
0.394578 -0.0783612 -0.322258 
0.44999 0.221538 -0.300535 
0.435963 0.2778 -0.422825 
-0.415129 -0.408285 -0.243165 
-0.403333 -0.203333 -0.217137 
-0.377354 0.00375336 -0.23548 
-0.298706 0.210473 -0.203498 
-0.402763 0.397237 -0.217116 
-0.147785 -0.411208 -0.371081 
-0.203538 -0.203538 -0.217116 
-0.203218 -0.00321788 -0.217145 
-0.110185 0.177726 -0.37474 
-0.248251 0.438426 -0.306139 
0.0963027 -0.436526 -0.289284 
-0.00366947 -0.203669 -0.217147 
-0.00360232 -0.00360232 -0.217124 
-0.00270707 0.149171 -0.341126 
0.0411394 0.449304 -0.42766 
0.20552 -0.396945 -0.22922 
0.182872 -0.216584 -0.245799 
0.192592 0.00547104 -0.236313 
0.237705 0.178577 -0.399111 
0.104673 0.373281 -0.319549 
0.395546 -0.337877 -0.226801 
0.403668 -0.149001 -0.252048 
0.406837 0.133563 -0.272537 
0.349665 0.328045 -0.285875 
0.412556 0.382797 -0.34927 
-0.415818 -0.411195 -0.154714 
-0.403333 -0.203333 -0.134061 
-0.38741 -0.00403142 -0.15543 
-0.441079 0.180424 -0.120448 
-0.402763 0.397237 -0.134042 
-0.241383 -0.395324 -0.324057 
-0.203538 -0.203538 -0.134043 
-0.203218 -0.00321788 -0.134069 
-0.17108 0.164094 -0.279965 
-0.266821 0.365366 -0.265705 
0.0434913 -0.387314 -0.245538 
-0.00366947 -0.203669 -0.134071 
-0.00360232 -0.00360232 -0.134051 
-0.0236108 0.21511 -0.266785 
-0.0833524 0.442045 -0.362952 
0.201495 -0.401177 -0.157756 
0.217843 -0.292501 -0.188661 
0.186276 0.00228217 -0.163621 
0.19985 0.216459 -0.321327 
0.35952 0.448614 -0.168161 
0.394884 -0.401719 -0.150489 
0.405908 -0.247625 -0.267595 
0.397152 -0.00095249 -0.258305 
0.357882 0.221793 -0.214529 
0.400374 0.46112 -0.314983 
-0.414003 -0.405277 -0.0786387 
-0.403333 -0.203333 -0.0503891 
-0.431185 -0.00645901 -0.0938404 
-0.268691 0.199548 -0.0997001 
-0.402763 0.397237 -0.0503704 
-0.17011 -0.404105 -0.257561 
-0.203538 -0.203538 -0.0503759 
-0.203218 -0.00321788 -0.0503943 
-0.152075 0.195789 -0.197203 
-0.188494 0.371672 -0.206862 
-0.0322542 -0.379851 -0.20123 
-0.00366947 -0.203669 -0.050399 
-0.00360232 -0.00360232 -0.0503824 
0.00874075 0.209602 -0.195716 
-0.0751352 0.365644 -0.301958 
0.209552 -0.399244 -0.0784753 
0.201972 -0.244827 -0.101953 
0.18283 -0.00125972 -0.0866477 
0.202645 0.280914 -0.247902 
0.171226 0.360725 -0.198153 
0.397224 -0.450323 -0.0635283 
0.395872 -0.250065 -0.141891 
0.38639 -0.077042 -0.185041 
0.450248 0.0858908 -0.194258 
0.427755 0.417309 -0.237086 
-0.410283 -0.400408 -0.000549768 
-0.403333 -0.203333 0.0339384 
-0.428067 -0.0041535 0.0064844 
-0.275032 0.241172 -0.00586043 
-0.402763 0.397237 0.0339578 
-0.132216 -0.403084 -0.168589 
-0.203538 -0.203538 0.0339463 
-0.203218 -0.00321788 0.0339355 
-0.178132 0.22835 -0.108212 
-0.204419 0.400697 -0.137742 
-0.0288044 -0.399633 -0.10974 
-0.00366947 -0.203669 0.0339277 
-0.00360232 -0.00360232 0.0339407 
0.0188091 0.188552 -0.128236 
-0.0197049 0.369037 -0.230178 
0.18702 -0.4107 -0.00964522 
0.195784 -0.198171 -0.0312952 
0.186826 -0.00306652 -0.00761437 
0.203416 0.191678 -0.194223 
0.0669282 0.396405 -0.185955 
0.396773 -0.347097 -0.0464026 
0.395493 -0.128431 -0.0998146 
0.394202 0.0161535 -0.150251 
0.397473 0.314508 -0.199135 
0.429916 0.386682 -0.140989 
-0.409906 -0.40088 0.0773759 
-0.403333 -0.203333 0.1189 
-0.415303 0.000581391 0.0768362 
-0.449174 0.187299 0.00575269 
-0.402763 0.397237 0.11892 
-0.220425 -0.399994 -0.116571 
-0.203538 -0.203538 0.118903 
-0.203218 -0.00321788 0.118899 
-0.176944 0.196773 -0.0164867 
-0.185005 0.405403 -0.0479174 
-0.00192468 -0.411651 -0.0243977 
-0.00366947 -0.203669 0.118888 
-0.00360232 -0.00360232 0.118898 
-0.0276963 0.209728 -0.0476066 
-0.0195971 0.434732 -0.150105 
0.197607 -0.406219 0.0848671 
0.189978 -0.193781 0.0565781 
0.193178 -0.00721712 0.0692654 
0.202131 0.171865 -0.108434 
0.268313 0.4428 -0.127429 
0.396516 -0.355463 0.0578659 
0.39778 -0.199257 -0.02932 
0.392642 0.0284394 -0.0511185 
0.376164 0.23441 -0.116011 
0.390991 0.445053 -0.0664455 
-0.411537 -0.404411 0.156191 
-0.403333 -0.203333 0.204431 
-0.400927 -0.00136629 0.151098 
-0.351227 0.170753 0.0775626 
-0.402763 0.397237 0.204451 
-0.207306 -0.405998 -0.00924627 
-0.203538 -0.203538 0.20443 
-0.203218 -0.00321788 0.204431 
-0.186379 0.182411 0.0897315 
-0.208433 0.39676 0.0285734 
-0.00311561 -0.399484 0.0736793 
-0.00366947 -0.203669 0.204419 
-0.00360232 -0.00360232 0.204426 
-0.00674622 0.201014 0.0483315 
-0.0124829 0.401808 -0.0655767 
0.194251 -0.405315 0.15601 
0.195416 -0.198993 0.147669 
0.193812 -0.00884821 0.142856 
0.188268 0.204706 -0.0260026 
0.198816 0.373999 -0.102801 
0.39681 -0.448123 0.118676 
0.39675 -0.233057 0.0809551 
0.395431 -0.0431734 0.0190777 
0.407742 0.126888 -0.0785367 
0.395999 0.396878 0.0186781 
-0.407271 -0.408285 0.235908 
-0.403333 -0.203333 0.463455 
-0.402907 -0.00300364 0.228627 
-0.380531 0.21873 0.449882 
-0.402763 0.397237 0.463462 
-0.200762 -0.400556 0.114863 
-0.203538 -0.203538 0.463454 
-0.203218 -0.00321788 0.463456 
-0.204421 0.19492 0.182007 
-0.205347 0.390692 0.116467 
-0.00220534 -0.400005 0.168867 
-0.00366947 -0.203669 0.463451 
-0.00360232 -0.00360232 0.463453 
0.0102246 0.191179 0.152537 
-0.0151766 0.390173 0.048579 
0.20156 -0.398812 0.232167 
0.199728 -0.208549 0.22707 
0.193821 -0.00499776 0.22531 
0.196061 0.197404 0.0681492 
0.20941 0.415012 0.449582 
0.396682 -0.400544 0.447239 
0.3966 -0.198994 0.447712 
0.397102 0.00722299 0.447841 
0.390627 0.23703 0.449988 
0.398006 0.398427 0.121472 
-0.407615 -0.403547 0.312969 
-0.403333 -0.203333 0.290439 
-0.406497 -0.00570668 0.30769 
-0.303285 0.210315 0.160435 
-0.402763 0.397237 0.290457 
-0.202089 -0.402662 0.231314 
-0.203538 -0.203538 0.290437 
-0.203218 -0.00321788 0.290441 
-0.20367 0.196007 0.276412 
-0.200944 0.396376 0.21757 
-0.00460834 -0.406217 0.26424 
-0.00366947 -0.203669 0.290429 
-0.00360232 -0.00360232 0.290434 
-0.00199348 0.199746 0.247582 
-0.00266816 0.397332 0.14763 
0.191462 -0.401217 0.306467 
0.195038 -0.2042 0.321336 
0.191038 -0.00300921 0.297287 
0.196923 0.196471 0.171459 
0.148127 0.375294 0.0818117 
0.396812 -0.419755 0.224537 
0.396339 -0.196947 0.224664 
0.396235 -0.00627333 0.138891 
0.401872 0.200102 0.0875742 
0.397279 0.395919 0.229922 
-0.40199 -0.403319 0.399088 
-0.403333 -0.203333 0.376818 
-0.404295 -0.00273612 0.395787 
-0.43859 0.162603 0.377622 
-0.402763 0.397237 0.376832 
-0.203099 -0.403099 0.376653 
-0.203538 -0.203538 0.376816 
-0.203218 -0.00321788 0.37682 
-0.203937 0.196063 0.375815 
-0.203347 0.396653 0.376405 
-0.00292062 -0.402921 0.376832 
-0.00366947 -0.203669 0.376811 
-0.00360232 -0.00360232 0.376814 
-0.00217008 0.19783 0.377582 
-0.00266816 0.397332 0.377084 
0.199011 -0.402503 0.396649 
0.199498 -0.202394 0.409125 
0.197248 -0.00267666 0.388749 
0.197198 0.197198 0.37695 
0.173336 0.362804 0.354652 
0.396667 -0.393902 0.331672 
0.396638 -0.211071 0.324882 
0.395274 -0.0247812 0.30746 
0.403121 0.150943 0.379694 
0.396534 0.396534 0.376286 
VERTICES 300 600
1 0
1 1
1 2
1 3
1 4
1 5
1 6
1 7
1 8
1 9
1 10
1 11
1 12
1 13
1 14
1 15
1 16
1 17
1 18
1 19
1 20
1 21
1 22
1 23
1 24
1 25
1 26
1 27
1 28
1 29
1 30
1 31
1 32
1 33
1 34
1 35
1 36
1 37
1 38
1 39
1 40
1 41
1 42
1 43
1 44
1 45
1 46
1 47
1 48
1 49
1 50
1 51
1 52
1 53
1 54
1 55
1 56
1 57
1 58
1 59
1 60
1 61
1 62
1 63
1 64
1 65
1 66
1 67
1 68
1 69
1 70
1 71
1 72
1 73
1 74
1 75
1 76
1 77
1 78
1 79
1 80
1 81
1 82
1 83
1 84
1 85
1 86
1 87
1 88
1 89
1 90
1 91
1 92
1 93
1 94
1 95
1 96
1 97
1 98
1 99
1 100
1 101
1 102
1 103
1 104
1 105
1 106
1 107
1 108
1 109
1 110
1 111
1 112
1 113
1 114
1 115
1 116
1 117
1 118
1 119
1 120
1 121
1 122
1 123
1 124
1 125
1 126
1 127
1 128
1 129
1 130
1 131
1 132
1 133
1 134
1 135
1 136
1 137
1 138
1 139
1 140
1 141
1 142
1 143
1 144
1 145
1 146
1 147
1 148
1 149
1 150
1 151
1 152
1 153
1 154
1 155
1 156
1 157
1 158
1 159
1 160
1 161
1 162
1 163
1 164
1 165
1 166
1 167
1 168
1 169
1 170
1 171
1 172
1 173
1 174
1 175
1 176
1 177
1 178
1 179
1 180
1 181
1 182
1 183
1 184
1 185
1 186
1 187
1 188
1 189
1 190
1 191
1 192
1 193
1 194
1 195
1 196
1 197
1 198
1 199
1 200
1 201
1 202
1 203
1 204
1 205
1 206
1 207
1 208
1 209
1 210
1 211
1 212
1 213
1 214
1 215
1 216
1 217
1 218
1 219
1 220
1 221
1 222
1 223
1 224
1 225
1 226
1 227
1 228
1 229
1 230
1 231
1 232
1 233
1 234
1 235
1 236
1 237
1 238
1 239
1 240
1 241
1 242
1 243
1 244
1 245
1 246
1 247
1 248
1 249
1 250
1 251
1 252
1 253
1 254
1 255
1 256
1 257
1 258
1 259
1 260
1 261
1 262
1 263
1 264
1 265
1 266
1 267
1 268
1 269
1 270
1 271
1 272
1 273
1 274
1 275
1 276
1 277
1 278
1 279
1 280
1 281
1 282
1 283
1 284
1 285
1 286
1 287
1 288
1 289
1 290
1 291
1 292
1 293
1 294
1 295
1 296
1 297
1 298
1 299
POINT_DATA 300
SCALARS id int 1
LOOKUP_TABLE default
0
1
2
3
4
5
6
7
8
9
10
11
12
13
14
15
16
17
18
19
20
21
22
23
24
25
26
27
28
29
30
31
32
33
34
35
36
37
38
39
40
41
42
43
44
45
46
47
48
49
50
51
52
53
54
55
56
57
58
59
60
61
62
63
64
65
66
67
68
69
70
71
72
73
74
75
76
77
78
79
80
81
82
83
84
85
86
87
88
89
90
91
92
93
94
95
96
97
98
99
100
101
102
103
104
105
106
107
108
109
110
111
112
113
114
115
116
117
118
119
120
121
122
123
124
125
126
127
128
129
130
131
132
133
134
135
136
137
138
139
140
141
142
143
144
145
146
147
148
149
150
151
152
153
154
155
156
157
158
159
160
161
162
163
164
165
166
167
168
169
170
171
172
173
174
175
176
177
178
179
180
181
182
183
184
185
186
187
188
189
190
191
192
193
194
195
196
197
198
199
200
201
202
203
204
205
206
207
208
209
210
211
212
213
214
215
216
217
218
219
220
221
222
223
224
225
226
227
228
229
230
231
232
233
234
235
236
237
238
239
240
241
242
243
244
245
246
247
248
249
250
251
252
253
254
255
256
257
258
259
260
261
262
263
264
265
266
267
268
269
270
271
272
273
274
275
276
277
278
279
280
281
282
283
284
285
286
287
288
289
290
291
292
293
294
295
296
297
298
299
SCALARS type int 1
LOOKUP_TABLE default
0
0
0
0
0
0
0
0
0
0
0
0
0
0
0
0
0
0
0
0
0
0
0
0
0
0
0
0
0
0
0
0
0
0
0
0
0
0
0
0
0
0
0
0
0
0
0
0
0
0
0
0
0
0
0
0
0
0
0
0
0
0
0
0
0
0
0
0
0
0
0
0
0
0
0
0
0
0
0
0
0
0
0
0
0
0
0
0
0
0
0
0
0
0
0
0
0
0
0
0
0
0
0
0
0
0
0
0
0
0
0
0
0
0
0
0
0
0
0
0
0
0
0
0
0
0
0
0
0
0
0
0
0
0
0
0
0
0
0
0
0
0
0
0
0
0
0
0
0
0
0
0
0
0
0
0
0
0
0
0
0
0
0
0
0
0
0
0
0
0
0
0
0
0
0
0
0
0
0
0
0
0
0
0
0
0
0
0
0
0
0
0
0
0
0
0
0
0
0
0
0
0
0
0
0
0
0
0
0
0
0
0
0
0
0
0
0
0
0
0
0
0
0
0
0
0
0
0
0
0
0
0
0
0
0
0
0
0
0
0
0
0
0
0
0
0
0
0
0
0
0
0
0
0
0
0
0
0
0
0
0
0
0
0
0
0
0
0
0
0
0
0
0
0
0
0
0
0
0
0
0
0
0
0
0
0
0
0
0
0
0
0
0
0
0
0
0
0
0
0
SCALARS damp_viscous double 1
LOOKUP_TABLE default
0
0
0
0
0
0
0
0
0
0
0
0
0
0
0
0
0
0
0
0
0
0
0
0
0
0
0
0
0
0
0
0
0
0
0
0
0
0
0
0
0
0
0
0
0
0
0
0
0
0
0
0
0
0
0
0
0
0
0
0
0
0
0
0
0
0
0
0
0
0
0
0
0
0
0
0
0
0
0
0
0
0
0
0
0
0
0
0
0
0
0
0
0
0
0
0
0
0
0
0
0
0
0
0
0
0
0
0
0
0
0
0
0
0
0
0
0
0
0
0
0
0
0
0
0
0
0
0
0
0
0
0
0
0
0
0
0
0
0
0
0
0
0
0
0
0
0
0
0
0
0
0
0
0
0
0
0
0
0
0
0
0
0
0
0
0
0
0
0
0
0
0
0
0
0
0
0
0
0
0
0
0
0
0
0
0
0
0
0
0
0
0
0
0
0
0
0
0
0
0
0
0
0
0
0
0
0
0
0
0
0
0
0
0
0
0
0
0
0
0
0
0
0
0
0
0
0
0
0
0
0
0
0
0
0
0
0
0
0
0
0
0
0
0
0
0
0
0
0
0
0
0
0
0
0
0
0
0
0
0
0
0
0
0
0
0
0
0
0
0
0
0
0
0
0
0
0
0
0
0
0
0
0
0
0
0
0
0
0
0
0
0
0
0
0
0
0
0
0
0
SCALARS damp_numerical double 1
LOOKUP_TABLE default
0.5
0.5
0.5
0.5
0.5
0.5
0.5
0.5
0.5
0.5
0.5
0.5
0.5
0.5
0.5
0.5
0.5
0.5
0.5
0.5
0.5
0.5
0.5
0.5
0.5
0.5
0.5
0.5
0.5
0.5
0.5
0.5
0.5
0.5
0.5
0.5
0.5
0.5
0.5
0.5
0.5
0.5
0.5
0.5
0.5
0.5
0.5
0.5
0.5
0.5
0.5
0.5
0.5
0.5
0.5
0.5
0.5
0.5
0.5
0.5
0.5
0.5
0.5
0.5
0.5
0.5
0.5
0.5
0.5
0.5
0.5
0.5
0.5
0.5
0.5
0.5
0.5
0.5
0.5
0.5
0.5
0.5
0.5
0.5
0.5
0.5
0.5
0.5
0.5
0.5
0.5
0.5
0.5
0.5
0.5
0.5
0.5
0.5
0.5
0.5
0.5
0.5
0.5
0.5
0.5
0.5
0.5
0.5
0.5
0.5
0.5
0.5
0.5
0.5
0.5
0.5
0.5
0.5
0.5
0.5
0.5
0.5
0.5
0.5
0.5
0.5
0.5
0.5
0.5
0.5
0.5
0.5
0.5
0.5
0.5
0.5
0.5
0.5
0.5
0.5
0.5
0.5
0.5
0.5
0.5
0.5
0.5
0.5
0.5
0.5
0.5
0.5
0.5
0.5
0.5
0.5
0.5
0.5
0.5
0.5
0.5
0.5
0.5
0.5
0.5
0.5
0.5
0.5
0.5
0.5
0.5
0.5
0.5
0.5
0.5
0.5
0.5
0.5
0.5
0.5
0.5
0.5
0.5
0.5
0.5
0.5
0.5
0.5
0.5
0.5
0.5
0.5
0.5
0.5
0.5
0.5
0.5
0.5
0.5
0.5
0.5
0.5
0.5
0.5
0.5
0.5
0.5
0.5
0.5
0.5
0.5
0.5
0.5
0.5
0.5
0.5
0.5
0.5
0.5
0.5
0.5
0.5
0.5
0.5
0.5
0.5
0.5
0.5
0.5
0.5
0.5
0.5
0.5
0.5
0.5
0.5
0.5
0.5
0.5
0.5
0.5
0.5
0.5
0.5
0.5
0.5
0.5
0.5
0.5
0.5
0.5
0.5
0.5
0.5
0.5
0.5
0.5
0.5
0.5
0.5
0.5
0.5
0.5
0.5
0.5
0.5
0.5
0.5
0.5
0.5
0.5
0.5
0.5
0.5
0.5
0.5
0.5
0.5
0.5
0.5
0.5
0.5
0.5
0.5
0.5
0.5
0.5
0.5
0.5
0.5
0.5
0.5
0.5
0.5
0.5
0.5
0.5
0.5
0.5
0.5
SCALARS quat double 4
LOOKUP_TABLE default
0.980178 0.0854863 -0.019563 0.177653 
0.422936 0.19358 0.881935 0.076436 
0.996004 0.0672678 -0.0584081 -0.00635887 
0.305752 0.00489864 -0.950466 -0.055741 
0.218235 0.323535 0.831742 0.394847 
0.807919 -0.22259 -0.172181 0.517758 
0.259029 0.245797 0.696789 0.622072 
0.947128 0.0660144 0.273627 0.154011 
0.102525 0.904852 0.407594 0.0678107 
0.286539 0.132035 0.0584712 0.947124 
0.911179 -0.10599 0.0711232 0.391741 
0.895604 0.01201 0.325206 0.3033 
0.115508 0.577388 0.641376 0.491851 
0.607883 0.725642 0.314964 -0.0686997 
0.793558 0.0892166 -0.0492322 0.599902 
0.99724 0.0398722 -0.0626011 -0.00175602 
0.660148 0.112716 0.0101867 0.742561 
0.975002 0.0823672 -0.00224116 0.206356 
0.970385 0.112903 -0.0846153 0.196076 
-0.223971 0.318849 0.920286 0.0352996 
0.999891 -0.0118111 0.000948943 -0.00884658 
-0.0270012 0.52482 -0.329755 0.784281 
0.739092 0.265951 0.0159293 0.618675 
0.375605 0.868854 -0.26877 -0.178257 
0.986623 0.0838824 -0.0957438 0.101839 
0.983028 0.108287 -0.0605829 0.135131 
0.422936 0.19358 0.881935 0.076436 
0.991684 0.0167789 -0.111235 0.0625172 
0.218687 -0.201463 -0.947574 0.117012 
0.218235 0.323535 0.831742 0.394847 
0.79693 0.165852 0.528868 0.240195 
0.259029 0.245797 0.696789 0.622072 
0.947128 0.0660144 0.273627 0.154011 
0.315183 0.133691 0.0543587 0.937993 
0.407374 0.756655 0.37187 -0.351045 
0.683122 0.185461 0.0503151 0.704569 
0.895604 0.01201 0.325206 0.3033 
0.115508 0.577388 0.641376 0.491851 
0.703147 -0.593464 -0.387522 0.0566751 
0.156193 0.823179 0.283217 -0.466656 
0.962649 0.0737472 -0.171968 0.19569 
0.775678 0.0223404 -0.00740125 0.630689 
0.980162 0.0713225 0.0608736 0.174611 
0.0184126 0.805573 0.572343 -0.152107 
0.739115 0.0903407 -0.649346 0.154587 
0.874561 0.484831 0.00463052 -0.00783202 
0.453872 -0.238651 0.85492 -0.0784744 
-0.0675156 0.814958 -0.540111 0.198912 
0.211685 0.917317 0.0177945 0.336751 
-0.684434 0.702876 0.193607 -0.00560286 
0.966186 0.160158 -0.195734 0.050225 
0.422936 0.19358 0.881935 0.076436 
0.987003 0.0416342 -0.123702 0.0937548 
0.974301 0.0905958 -0.151213 -0.140234 
0.218235 0.323535 0.831742 0.394847 
-0.480268 0.378989 0.458879 -0.644314 
0.259029 0.245797 0.696789 0.622072 
0.947128 0.0660144 0.273627 0.154011 
-0.433723 0.312126 0.220049 -0.816113 
0.237705 -0.509232 -0.116802 0.818863 
0.0854288 0.731718 0.665793 -0.118367 
0.895604 0.01201 0.325206 0.3033 
0.115508 0.577388 0.641376 0.491851 
-0.28907 0.574497 0.741643 0.190678 
0.460045 0.261699 0.847014 0.0493911 
0.934879 0.148534 -0.302749 0.110826 
0.642102 0.240984 -0.0711276 0.724274 
0.992581 0.0483938 0.0305663 0.107271 
0.854889 -0.00982749 0.494186 -0.157632 
-0.747343 -0.393122 -0.287655 -0.451871 
0.758683 -0.65117 -0.0191956 0.00305511 
0.306242 -0.336005 0.879545 -0.140419 
-0.782987 -0.0280036 -0.397227 -0.477868 
-0.327516 -0.845245 -0.0828669 -0.414037 
0.855352 -0.480032 0.030312 -0.192415 
0.937752 0.166078 -0.300812 0.0505116 
0.422936 0.19358 0.881935 0.076436 
0.961962 0.0773327 -0.252401 0.0703079 
-0.201908 -0.0411273 0.930145 -0.303927 
0.218235 0.323535 0.831742 0.394847 
0.84211 0.390393 -0.257757 -0.268337 
0.259029 0.245797 0.696789 0.622072 
0.947128 0.0660144 0.273627 0.154011 
-0.0677617 0.789446 -0.019809 0.609747 
-0.013698 0.679248 0.248991 0.690246 
0.88653 -0.12643 0.179538 0.407242 
0.895604 0.01201 0.325206 0.3033 
0.115508 0.577388 0.641376 0.491851 
0.863439 0.501792 0.0233496 -0.0461842 
0.243339 -0.872676 0.0177458 0.422976 
0.986061 0.165295 -0.00209783 -0.0188953 
0.242891 0.936563 -0.116394 0.224289 
0.968413 0.0734023 -0.01311 0.237943 
0.981135 -0.0679172 -0.0372133 0.177137 
0.558427 0.351627 -0.471023 0.585367 
0.916283 -0.39826 -0.00776781 -0.0418829 
0.31739 0.303471 0.334547 0.833815 
0.757102 -0.437558 0.311447 0.371943 
0.139612 0.874278 -0.281037 -0.370357 
0.908306 0.300742 0.26755 -0.113806 
0.983806 0.117881 -0.0923922 0.098458 
0.422936 0.19358 0.881935 0.076436 
0.88649 0.166258 -0.431505 -0.0172554 
0.962699 0.104141 -0.122335 0.217712 
0.218235 0.323535 0.831742 0.394847 
0.915978 -0.263835 0.123118 0.276073 
0.259029 0.245797 0.696789 0.622072 
0.947128 0.0660144 0.273627 0.154011 
0.599044 0.769647 0.105466 0.194078 
0.363613 0.486433 -0.567851 0.55562 
0.845449 -0.265156 -0.225323 0.40514 
0.895604 0.01201 0.325206 0.3033 
0.115508 0.577388 0.641376 0.491851 
0.976168 -0.0817982 0.0948346 -0.177232 
0.477345 0.213753 -0.39817 0.753599 
0.971129 0.195528 -0.13665 -0.0020293 
0.721577 0.325398 -0.256078 0.554857 
0.944149 0.110133 -0.0672274 0.303205 
0.887984 0.0154416 0.260488 0.378672 
0.586434 0.35772 -0.561681 0.461136 
0.445632 0.894814 0.0244558 -0.0110717 
0.00263624 0.471209 -0.342721 0.81271 
-0.72746 0.319115 -0.483698 -0.367429 
-0.815077 -0.56549 -0.00870523 0.125678 
0.768457 -0.59808 0.162353 0.159424 
0.976525 0.122749 -0.129542 0.120626 
0.422936 0.19358 0.881935 0.076436 
0.85485 0.129833 -0.501569 0.0283284 
-0.146594 -0.0739929 0.968633 -0.186511 
0.218235 0.323535 0.831742 0.394847 
-0.205209 0.306634 0.897087 0.243103 
0.259029 0.245797 0.696789 0.622072 
0.947128 0.0660144 0.273627 0.154011 
0.108725 0.922703 0.362618 0.072849 
0.262111 0.636432 0.677127 -0.260291 
0.781386 0.0970141 -0.256764 0.560443 
0.895604 0.01201 0.325206 0.3033 
0.115508 0.577388 0.641376 0.491851 
-0.141532 0.815385 0.548688 -0.118566 
0.514944 0.791439 0.284459 -0.165953 
0.949894 0.193519 -0.243473 0.0311943 
0.819096 -0.19584 0.173439 0.510536 
0.959027 0.111485 -0.0480322 0.255991 
0.964285 0.185972 0.147998 0.116899 
-0.521587 -0.0784139 -0.64541 -0.552489 
0.826323 -0.563181 -0.00107414 -0.00394547 
0.319415 -0.399448 0.712333 -0.480621 
0.724907 -0.379028 0.470263 0.331211 
-0.202113 -0.967062 0.150836 0.0344863 
-0.372795 0.922482 0.0890253 0.0461129 
0.96659 0.15371 -0.136671 0.152965 
0.422936 0.19358 0.881935 0.076436 
0.989271 0.0883272 0.106983 -0.0457825 
-0.595129 -0.200474 -0.76544 0.140471 
0.218235 0.323535 0.831742 0.394847 
0.738664 -0.568816 -0.348725 0.0959876 
0.259029 0.245797 0.696789 0.622072 
0.947128 0.0660144 0.273627 0.154011 
0.314141 0.689033 0.237941 0.608221 
0.199886 -0.222493 -0.0938916 0.949593 
0.649346 0.452191 0.498962 0.353427 
0.895604 0.01201 0.325206 0.3033 
0.115508 0.577388 0.641376 0.491851 
0.986981 0.143282 -0.0488948 -0.0542886 
0.893279 -0.38445 0.182498 0.144727 
0.902866 0.213257 -0.368823 0.0576485 
0.738721 0.283998 0.00609559 0.611228 
0.969527 0.108292 0.0170195 0.219088 
0.263136 0.950237 0.0638237 0.154062 
0.0243565 -0.266392 0.584462 -0.766059 
0.704345 -0.709842 -0.00448593 0.00168549 
0.402813 0.279095 0.579229 0.651416 
0.907891 -0.242655 0.272233 0.206741 
0.224139 -0.949898 0.147776 0.160058 
0.856851 -0.379848 -0.32037 -0.137423 
0.962157 0.181303 -0.144314 0.143377 
0.422936 0.19358 0.881935 0.076436 
0.99089 0.123831 -0.0528729 0.00273795 
0.503824 0.647872 0.568724 -0.0545576 
0.218235 0.323535 0.831742 0.394847 
0.832011 0.102202 0.428126 0.337669 
0.259029 0.245797 0.696789 0.622072 
0.947128 0.0660144 0.273627 0.154011 
-0.185678 0.917884 0.0543797 0.346491 
0.00552133 0.818236 0.493631 0.294598 
0.885369 0.29337 0.249553 0.260343 
0.895604 0.01201 0.325206 0.3033 
0.115508 0.577388 0.641376 0.491851 
0.863923 0.480705 0.150194 -0.0012516 
0.80855 0.387246 0.185539 0.402321 
0.994928 0.0722426 0.00248992 -0.0699443 
0.601604 0.409898 -0.150211 0.66895 
0.971241 0.108856 0.0390707 0.208122 
0.995621 -0.043924 0.0398604 0.0722601 
0.846487 0.19307 -0.299648 0.395468 
0.601914 0.798559 0.00169346 0.000209805 
0.210722 0.456595 0.0721301 0.861345 
0.645823 0.592548 -0.0073051 0.4814 
-0.603001 0.749273 -0.184969 0.201908 
0.152158 0.93268 0.295184 0.140794 
0.965742 0.206685 -0.128889 0.0895078 
0.422936 0.19358 0.881935 0.076436 
0.971946 0.145814 -0.179283 0.0437772 
0.806728 0.015229 0.59072 -0.00275818 
0.218235 0.323535 0.831742 0.394847 
0.719637 -0.0113957 0.650565 0.242399 
0.259029 0.245797 0.696789 0.622072 
0.947128 0.0660144 0.273627 0.154011 
0.269752 0.769439 0.28021 0.506636 
0.261045 -0.185022 -0.1486 0.935703 
0.907118 0.152713 0.31051 0.239579 
0.895604 0.01201 0.325206 0.3033 
0.115508 0.577388 0.641376 0.491851 
0.436618 0.696537 0.530854 -0.205901 
0.496401 0.623463 -0.146436 0.586035 
0.988702 0.0908962 -0.116076 0.0270797 
0.746287 0.319492 0.0192494 0.583618 
0.981106 0.0758541 -0.0192042 0.176941 
0.937951 0.0319995 0.260461 0.226681 
0.435486 -0.0279226 -0.84877 0.298602 
0.996335 0.0855254 0.00135001 0.000570845 
0.507659 0.0286794 0.792358 0.337088 
0.78901 0.246414 0.136629 0.545962 
0.766273 -0.559426 0.315921 -0.00791032 
0.93136 0.315788 0.181169 -0.00487971 
0.976016 0.166468 -0.110385 0.0865859 
0.422936 0.19358 0.881935 0.076436 
0.96309 0.16201 -0.214869 0.00641127 
0.917686 0.188469 -0.0718788 0.342295 
0.218235 0.323535 0.831742 0.394847 
0.820733 -0.00470472 0.501547 0.273543 
0.259029 0.245797 0.696789 0.622072 
0.947128 0.0660144 0.273627 0.154011 
0.181317 0.813232 0.430994 0.346441 
-0.0529907 0.71494 0.562827 0.411436 
0.851999 0.344447 0.277997 0.279592 
0.895604 0.01201 0.325206 0.3033 
0.115508 0.577388 0.641376 0.491851 
0.947896 0.276847 0.0885236 0.130432 
0.850018 0.347012 0.124087 0.37637 
0.973598 0.0860428 -0.180529 0.110063 
0.676594 0.412194 -0.0459053 0.608448 
0.982742 0.00141108 0.0781857 0.167638 
0.809092 0.450267 0.255282 0.278317 
0.873006 0.145869 0.124975 0.44829 
0.999526 0.0307682 0.000527531 0.000442874 
0.457259 0.213414 0.618338 0.602517 
0.792187 0.21747 0.164625 0.545936 
0.92758 0.285142 0.148286 0.190526 
0.787807 0.569761 0.233947 0.00116197 
0.975843 0.0951042 -0.163477 0.109364 
0.422936 0.19358 0.881935 0.076436 
0.959589 0.0812287 -0.268172 0.0259534 
0.735203 -0.15342 -0.558318 0.352448 
0.218235 0.323535 0.831742 0.394847 
0.782254 0.0200634 0.559244 0.273718 
0.259029 0.245797 0.696789 0.622072 
0.947128 0.0660144 0.273627 0.154011 
0.00852215 0.825956 0.405925 0.391087 
0.294533 0.334664 0.272849 0.852528 
0.890541 0.298127 0.240521 0.245368 
0.895604 0.01201 0.325206 0.3033 
0.115508 0.577388 0.641376 0.491851 
0.759909 0.547316 0.350679 -0.00270859 
0.824488 0.388943 0.180706 0.369174 
0.942773 0.158279 -0.289539 0.0478981 
0.722167 0.0411433 -0.0323447 0.689736 
0.974481 0.0325239 -0.0386089 0.218721 
0.89664 0.25546 0.282605 0.225634 
0.561453 -0.00125086 0.80868 0.175516 
0.927211 -0.374539 -0.000863416 0.000490761 
0.458685 0.208261 0.628015 0.593154 
0.818713 0.0123406 0.313769 0.480734 
0.919279 -0.372654 0.091329 0.0878354 
0.856722 0.464564 0.224021 0.00480169 
0.969741 0.22529 -0.0639724 0.0689554 
0.422936 0.19358 0.881935 0.076436 
0.993132 0.0944707 -0.0679187 0.0123069 
0.931291 0.146643 -0.00869131 0.333342 
0.218235 0.323535 0.831742 0.394847 
0.822268 0.00687642 0.488428 0.292003 
0.259029 0.245797 0.696789 0.622072 
0.947128 0.0660144 0.273627 0.154011 
0.114949 0.809678 0.432343 0.379853 
0.241786 0.448885 0.409847 0.756351 
0.907485 0.19221 0.316201 0.198854 
0.895604 0.01201 0.325206 0.3033 
0.115508 0.577388 0.641376 0.491851 
0.835101 0.483927 0.255872 0.054317 
0.824488 0.388943 0.180706 0.369174 
0.996934 0.0628939 -0.043338 0.0169764 
0.667495 0.507405 -0.0882091 0.537783 
0.957031 0.0486465 0.195879 0.208223 
0.894099 0.242412 0.307197 0.217838 
0.866371 0.0608562 0.283114 0.406871 
0.994415 0.10554 3.09691e-05 0.000546336 
0.462713 0.201164 0.634434 0.585596 
0.812365 0.117533 0.239521 0.518535 
0.970998 0.0784422 0.155941 0.163375 
0.85666 0.475253 0.200024 0.0160836 
VECTORS vel double
0.000776451 0.000995672 0.00175031 
0 0 -2.67909 
0.0272497 0.00115562 0.0199355 
0.013958 -0.202092 -0.137646 
0 0 -2.68175 
0.010276 0.000363434 0.00137212 
0 0 -2.67867 
0 0 -2.67937 
0.0406315 -0.047498 -0.0262688 
0.000728675 0.000150659 0.000730413 
-0.0398071 -0.0150547 -0.0192211 
0 0 -2.67754 
0 0 -2.67825 
0.0238008 -0.00561683 -0.0020221 
0.0120878 -0.0161345 -0.00423968 
0.0593708 0.0526664 0.0191783 
-0.0192067 0.0309262 0.0166298 
0.00167202 0.000750209 -0.00344216 
0.00368482 0.00338915 -0.000186235 
0.331787 -0.0686499 0.245722 
0.00343274 0.0252494 -0.00875022 
0.077523 0.373124 0.0674749 
-0.28937 0.344929 0.102947 
0.119508 0.33887 -0.0724383 
0.00858974 -2.06992e-05 -0.0131068 
0.00166744 0.00379521 0.00325227 
0 0 -4.77354 
0.0754476 -0.00282481 0.0238602 
0.00329548 -0.0350526 -0.39299 
0 0 -4.78145 
-0.0226134 -0.0156061 -0.0564558 
0 0 -4.77691 
0 0 -4.7723 
2.0935e-05 -7.47884e-05 3.93329e-05 
-0.00898259 0.0266565 -0.00995765 
-0.0982854 -0.0770936 -0.00245958 
0 0 -4.76919 
0 0 -4.77462 
0.0307611 0.018649 -0.0199079 
-0.00547338 -0.00597309 -0.00063847 
0.116384 0.0857269 0.00288476 
-0.0844413 0.0679082 -0.00216266 
0.00537631 0.00738315 -0.00840861 
-0.00562336 -0.00259035 -0.00355789 
0.0515456 -0.103787 -0.102281 
0.00297179 -0.0824516 -0.0856369 
0.0244447 -0.560922 -0.803908 
-0.80008 -0.319673 -1.25898 
0.386382 0.418844 -0.3568 
0.186049 0.0256945 -0.0558124 
0.00346257 0.00924467 0.00602375 
0 0 -5.76539 
0.135859 0.0293135 0.0192998 
0.441445 0.654996 -0.2633 
0 0 -5.7737 
-0.00527338 0.0407865 -0.00359838 
0 0 -5.77222 
0 0 -5.76263 
0.0106315 -0.0424149 -0.0376394 
-0.0609273 0.021529 -0.0407104 
0.00121242 -0.0350726 -0.0984362 
0 0 -5.76102 
0 0 -5.76908 
-0.0273217 0.042865 -0.0883986 
0.544428 -0.0140422 0.00652347 
0.0918704 0.00353552 0.00532924 
-0.235967 0.186588 -0.108561 
0.00290066 0.00962173 -0.0139843 
-0.0537594 0.00530383 -0.0113696 
0.172396 -0.287831 -0.145224 
-0.0814036 0.0503622 -0.320176 
0.199793 -0.399647 -1.51733 
-0.0789893 -0.0903547 -0.994384 
-0.00102377 0.239877 -1.34411 
0.143722 -0.127598 -0.762733 
-0.033208 -0.00344576 -0.0216624 
0 0 -5.81103 
0.165935 0.0877767 0.0149262 
1.17617 0.0343323 -0.930693 
0 0 -5.81555 
-0.0361255 -0.0460342 0.0102868 
0 0 -5.81989 
0 0 -5.80718 
0.00746616 -0.0143417 -0.134956 
-0.286983 0.0181262 -0.122808 
0.070973 -0.0336979 -0.0651782 
0 0 -5.80892 
0 0 -5.81703 
0.19928 -0.250333 -0.0860219 
0.000623795 0.0217743 -0.275576 
0.0752487 0.0133062 0.00465722 
-0.047966 -0.0996741 -0.353956 
-0.00190628 0.00720766 -0.00954947 
0.134224 -0.0171611 -0.207819 
0.00680049 -0.218397 -1.99646 
-0.0732316 0.198124 -1.06225 
0.389201 0.502834 -0.324281 
-0.0215595 0.36134 -0.0574356 
-0.397 -0.263099 -0.627661 
0.064315 -0.0501724 0.0197269 
-0.0779331 -0.0247914 0.0161345 
0 0 -5.29601 
0.0326476 0.0427424 -0.0128635 
0.210569 -0.0387578 -0.118486 
0 0 -5.29546 
-0.0325119 0.0058699 -0.0720789 
0 0 -5.30588 
0 0 -5.29151 
0.175336 -0.0790238 -0.0433427 
-0.202778 -0.146087 -0.310288 
-0.0301639 0.0667903 -0.28293 
0 0 -5.29686 
0 0 -5.30378 
-0.131453 -0.0866221 -0.0870469 
-0.379441 -0.0288481 -0.106859 
0.0451057 -0.00598921 0.00217731 
0.146428 -0.38276 -0.595987 
-0.00406445 0.0043363 -0.00291451 
0.0111804 -0.0467952 -0.351705 
0.392646 0.11339 -0.147097 
-0.196357 -0.072848 -1.00061 
0.611821 0.504147 -0.945801 
0.128264 0.365021 -1.43847 
-0.281166 0.657593 -0.900494 
0.0737633 -0.0119632 -0.0037254 
-0.0297893 -0.0149644 0.00756147 
0 0 -4.51348 
-0.089404 -0.0414995 -0.0298062 
0.244761 -0.00515832 -0.175468 
0 0 -4.50861 
0.309385 0.00024574 -0.472603 
0 0 -4.52326 
0 0 -4.50887 
0.823407 -0.0810881 -0.171241 
-0.00874109 -0.155972 -0.594248 
-0.232409 0.154771 -0.757735 
0 0 -4.51679 
0 0 -4.52201 
-0.00204413 -0.0121233 -0.194114 
-0.743719 -0.287575 -0.307728 