# vtk DataFile Version 2.0
Generated by NetDEM
ASCII 
DATASET POLYDATA
POINTS 225 double
-0.416948 -0.4054 -0.462885 
-0.403333 -0.203333 -0.450041 
-0.412202 -0.00745418 -0.464509 
-0.40295 0.19705 -0.45004 
-0.402763 0.397237 -0.450041 
-0.264666 -0.432717 -0.459543 
-0.203538 -0.203538 -0.450041 
-0.203218 -0.00321788 -0.45004 
-0.175689 0.196567 -0.459854 
-0.24676 0.369076 -0.465031 
-0.0291707 -0.409737 -0.453952 
-0.00366947 -0.203669 -0.450042 
-0.00360232 -0.00360232 -0.450042 
0.0397552 0.163124 -0.449947 
-0.0372003 0.393396 -0.465046 
0.189027 -0.398187 -0.464397 
0.174447 -0.212643 -0.464998 
0.172721 -0.00955026 -0.462791 
0.158296 0.210494 -0.464877 
0.196913 0.396913 -0.45004 
0.396713 -0.403287 -0.45004 
0.39661 -0.20339 -0.450041 
0.396488 -0.00351175 -0.450041 
0.396508 0.196508 -0.450041 
0.373941 0.448318 -0.462354 
-0.402868 -0.3995 -0.38823 
-0.403333 -0.203333 -0.350077 
-0.415088 -0.0093019 -0.39106 
-0.40295 0.19705 -0.350075 
-0.402763 0.397237 -0.350076 
-0.298007 -0.404088 -0.381136 
-0.203538 -0.203538 -0.350077 
-0.203218 -0.00321788 -0.350075 
-0.287969 0.171064 -0.453577 
-0.15335 0.403191 -0.443313 
-0.0304152 -0.3936 -0.372254 
-0.00366947 -0.203669 -0.350078 
-0.00360232 -0.00360232 -0.350078 
0.00422165 0.224314 -0.416333 
0.0225922 0.36495 -0.391767 
0.187678 -0.396473 -0.391901 
0.195545 -0.209382 -0.391737 
0.18553 -0.0137091 -0.384017 
0.194806 0.139925 -0.411357 
0.196913 0.396913 -0.350075 
0.396713 -0.403287 -0.350075 
0.39661 -0.20339 -0.350077 
0.396488 -0.00351175 -0.350076 
0.396508 0.196508 -0.350077 
0.386335 0.377715 -0.411596 
-0.4012 -0.403725 -0.316155 
-0.403333 -0.203333 -0.250107 
-0.398174 -0.00282923 -0.311016 
-0.40295 0.19705 -0.250104 
-0.402763 0.397237 -0.250105 
-0.189997 -0.404071 -0.425511 
-0.203538 -0.203538 -0.250107 
-0.203218 -0.00321788 -0.250104 
-0.210963 0.20113 -0.36982 
-0.202421 0.426205 -0.370125 
-0.00251489 -0.4043 -0.28623 
-0.00366947 -0.203669 -0.250108 
-0.00360232 -0.00360232 -0.250108 
-0.0257611 0.221804 -0.328461 
0.0730237 0.363776 -0.320534 
0.175639 -0.394742 -0.31812 
0.180842 -0.188206 -0.305421 
0.187679 0.00194424 -0.309164 
0.25074 0.118366 -0.349915 
0.196913 0.396913 -0.250104 
0.396713 -0.403287 -0.250105 
0.39661 -0.20339 -0.250107 
0.396488 -0.00351175 -0.250106 
0.396508 0.196508 -0.250107 
0.405338 0.340289 -0.328709 
-0.409738 -0.404876 -0.240269 
-0.403333 -0.203333 -0.150132 
-0.397221 0.00181544 -0.234303 
-0.40295 0.19705 -0.150129 
-0.402763 0.397237 -0.15013 
-0.135374 -0.403546 -0.323235 
-0.203538 -0.203538 -0.150133 
-0.203218 -0.00321788 -0.150129 
-0.158102 0.190572 -0.308279 
-0.208106 0.408105 -0.279057 
0.0215062 -0.401563 -0.202201 
-0.00366947 -0.203669 -0.150134 
-0.00360232 -0.00360232 -0.150134 
-0.00679893 0.17297 -0.270709 
0.0169978 0.412319 -0.271012 
0.198888 -0.399378 -0.229439 
0.186855 -0.198612 -0.220286 
0.192376 0.00115872 -0.2356 
0.207582 0.197918 -0.312952 
0.196913 0.396913 -0.150129 
0.396713 -0.403287 -0.150129 
0.39661 -0.20339 -0.150133 
0.396488 -0.00351175 -0.150131 
0.396508 0.196508 -0.150133 
0.397311 0.391138 -0.260213 
-0.407397 -0.408152 -0.156847 
-0.403333 -0.203333 -0.0501531 
-0.398222 -0.0040519 -0.151769 
-0.40295 0.19705 -0.0501486 
-0.402763 0.397237 -0.0501504 
-0.216859 -0.403395 -0.256546 
-0.203538 -0.203538 -0.0501537 
-0.203218 -0.00321788 -0.0501487 
-0.2146 0.19348 -0.231192 
-0.214494 0.392878 -0.203267 
0.00450645 -0.396012 -0.122462 
-0.00366947 -0.203669 -0.0501553 
-0.00360232 -0.00360232 -0.0501547 
-0.00957072 0.210631 -0.181598 
-0.0212024 0.415673 -0.183661 
0.193902 -0.408405 -0.157627 
0.19755 -0.224736 -0.131597 
0.187956 -0.000689648 -0.162425 
0.189492 0.208805 -0.217927 
0.196913 0.396913 -0.050149 
0.396713 -0.403287 -0.0501493 
0.39661 -0.20339 -0.0501533 
0.396488 -0.00351175 -0.0501518 
0.396508 0.196508 -0.0501536 
0.399578 0.406067 -0.170056 
-0.410827 -0.406875 -0.0779407 
-0.403333 -0.203333 0.0498303 
-0.418327 -0.00422172 -0.0771072 
-0.40295 0.19705 0.0498354 
-0.402763 0.397237 0.0498334 
-0.217759 -0.40374 -0.166703 
-0.203538 -0.203538 0.0498296 
-0.203218 -0.00321788 0.0498353 
-0.20597 0.204215 -0.141832 
-0.197089 0.393097 -0.109269 
-0.0153119 -0.39943 -0.0379509 
-0.00366947 -0.203669 0.0498278 
-0.00360232 -0.00360232 0.0498285 
-0.00767086 0.198564 -0.0863569 
-0.00315891 0.390508 -0.094199 
0.2088 -0.399624 -0.0766901 
0.193346 -0.204468 -0.0404898 
0.187592 -0.00184723 -0.0848409 
0.202452 0.21328 -0.126845 
0.196913 0.396913 0.0498349 
0.396713 -0.403287 0.0498346 
0.39661 -0.20339 0.04983 
0.396488 -0.00351175 0.0498317 
0.396508 0.196508 0.0498297 
0.391813 0.39974 -0.0835148 
-0.409731 -0.402828 -0.000611959 
-0.403333 -0.203333 0.149818 
-0.403433 -0.0030602 0.0141738 
-0.40295 0.19705 0.149823 
-0.402763 0.397237 0.149821 
-0.19562 -0.401231 -0.0520313 
-0.203538 -0.203538 0.149817 
-0.203218 -0.00321788 0.149823 
-0.203364 0.195114 -0.0496817 
-0.204406 0.396096 -0.0239651 
-0.00932405 -0.403996 0.0541962 
-0.00366947 -0.203669 0.149815 
-0.00360232 -0.00360232 0.149816 
0.0016402 0.194812 0.0209853 
-0.00470701 0.395354 -0.00685637 
0.191009 -0.403806 -0.00321861 
0.198344 -0.204738 0.0414079 
0.188192 -0.00479699 -0.00934283 
0.191535 0.189744 -0.0385504 
0.196913 0.396913 0.149823 
0.396713 -0.403287 0.149822 
0.39661 -0.20339 0.149818 
0.396488 -0.00351175 0.149819 
0.396508 0.196508 0.149817 
0.398516 0.389848 0.0106232 
-0.404183 -0.403018 0.0853866 
-0.403333 -0.203333 0.249809 
-0.405339 -0.00353036 0.0870712 
-0.40295 0.19705 0.249815 
-0.402763 0.397237 0.249813 
-0.203199 -0.40304 0.0578352 
-0.203538 -0.203538 0.249808 
-0.203218 -0.00321788 0.249815 
-0.203708 0.195423 0.0548375 
-0.203971 0.39596 0.0731135 
-0.00460308 -0.404911 0.146227 
-0.00366947 -0.203669 0.249806 
-0.00360232 -0.00360232 0.249807 
9.87739e-05 0.198794 0.129509 
-0.00311606 0.397786 0.0919281 
0.197547 -0.401479 0.0932974 
0.194919 -0.204129 0.131714 
0.196803 -0.00333513 0.0758439 
0.196777 0.197041 0.0657069 
0.196913 0.396913 0.249815 
0.396713 -0.403287 0.249814 
0.39661 -0.20339 0.249809 
0.396488 -0.00351175 0.249811 
0.396508 0.196508 0.249809 
0.396495 0.398381 0.110798 
-0.403633 -0.403633 0.290223 
-0.403333 -0.203333 0.349805 
-0.403998 -0.00399844 0.289858 
-0.40295 0.19705 0.349811 
-0.402763 0.397237 0.349809 
-0.203099 -0.403099 0.290757 
-0.203538 -0.203538 0.349804 
-0.203218 -0.00321788 0.349811 
-0.203937 0.196063 0.289919 
-0.203347 0.396653 0.29051 
-0.00292062 -0.402921 0.290936 
-0.00366947 -0.203669 0.349802 
-0.00360232 -0.00360232 0.349803 
-0.00217008 0.19783 0.291686 
-0.00266816 0.397332 0.291188 
0.197698 -0.402302 0.291554 
0.196222 -0.203778 0.290078 
0.197391 -0.00260897 0.291248 
0.197198 0.197198 0.291054 
0.196913 0.396913 0.34981 
0.396713 -0.403287 0.34981 
0.39661 -0.20339 0.349805 
0.396488 -0.00351175 0.349807 
0.396508 0.196508 0.349804 
0.396534 0.396534 0.29039 
VERTICES 225 450
1 0
1 1
1 2
1 3
1 4
1 5
1 6
1 7
1 8
1 9
1 10
1 11
1 12
1 13
1 14
1 15
1 16
1 17
1 18
1 19
1 20
1 21
1 22
1 23
1 24
1 25
1 26
1 27
1 28
1 29
1 30
1 31
1 32
1 33
1 34
1 35
1 36
1 37
1 38
1 39
1 40
1 41
1 42
1 43
1 44
1 45
1 46
1 47
1 48
1 49
1 50
1 51
1 52
1 53
1 54
1 55
1 56
1 57
1 58
1 59
1 60
1 61
1 62
1 63
1 64
1 65
1 66
1 67
1 68
1 69
1 70
1 71
1 72
1 73
1 74
1 75
1 76
1 77
1 78
1 79
1 80
1 81
1 82
1 83
1 84
1 85
1 86
1 87
1 88
1 89
1 90
1 91
1 92
1 93
1 94
1 95
1 96
1 97
1 98
1 99
1 100
1 101
1 102
1 103
1 104
1 105
1 106
1 107
1 108
1 109
1 110
1 111
1 112
1 113
1 114
1 115
1 116
1 117
1 118
1 119
1 120
1 121
1 122
1 123
1 124
1 125
1 126
1 127
1 128
1 129
1 130
1 131
1 132
1 133
1 134
1 135
1 136
1 137
1 138
1 139
1 140
1 141
1 142
1 143
1 144
1 145
1 146
1 147
1 148
1 149
1 150
1 151
1 152
1 153
1 154
1 155
1 156
1 157
1 158
1 159
1 160
1 161
1 162
1 163
1 164
1 165
1 166
1 167
1 168
1 169
1 170
1 171
1 172
1 173
1 174
1 175
1 176
1 177
1 178
1 179
1 180
1 181
1 182
1 183
1 184
1 185
1 186
1 187
1 188
1 189
1 190
1 191
1 192
1 193
1 194
1 195
1 196
1 197
1 198
1 199
1 200
1 201
1 202
1 203
1 204
1 205
1 206
1 207
1 208
1 209
1 210
1 211
1 212
1 213
1 214
1 215
1 216
1 217
1 218
1 219
1 220
1 221
1 222
1 223
1 224
POINT_DATA 225
SCALARS id int 1
LOOKUP_TABLE default
0
1
2
3
4
5
6
7
8
9
10
11
12
13
14
15
16
17
18
19
20
21
22
23
24
25
26
27
28
29
30
31
32
33
34
35
36
37
38
39
40
41
42
43
44
45
46
47
48
49
50
51
52
53
54
55
56
57
58
59
60
61
62
63
64
65
66
67
68
69
70
71
72
73
74
75
76
77
78
79
80
81
82
83
84
85
86
87
88
89
90
91
92
93
94
95
96
97
98
99
100
101
102
103
104
105
106
107
108
109
110
111
112
113
114
115
116
117
118
119
120
121
122
123
124
125
126
127
128
129
130
131
132
133
134
135
136
137
138
139
140
141
142
143
144
145
146
147
148
149
150
151
152
153
154
155
156
157
158
159
160
161
162
163
164
165
166
167
168
169
170
171
172
173
174
175
176
177
178
179
180
181
182
183
184
185
186
187
188
189
190
191
192
193
194
195
196
197
198
199
200
201
202
203
204
205
206
207
208
209
210
211
212
213
214
215
216
217
218
219
220
221
222
223
224
SCALARS type int 1
LOOKUP_TABLE default
0
0
0
0
0
0
0
0
0
0
0
0
0
0
0
0
0
0
0
0
0
0
0
0
0
0
0
0
0
0
0
0
0
0
0
0
0
0
0
0
0
0
0
0
0
0
0
0
0
0
0
0
0
0
0
0
0
0
0
0
0
0
0
0
0
0
0
0
0
0
0
0
0
0
0
0
0
0
0
0
0
0
0
0
0
0
0
0
0
0
0
0
0
0
0
0
0
0
0
0
0
0
0
0
0
0
0
0
0
0
0
0
0
0
0
0
0
0
0
0
0
0
0
0
0
0
0
0
0
0
0
0
0
0
0
0
0
0
0
0
0
0
0
0
0
0
0
0
0
0
0
0
0
0
0
0
0
0
0
0
0
0
0
0
0
0
0
0
0
0
0
0
0
0
0
0
0
0
0
0
0
0
0
0
0
0
0
0
0
0
0
0
0
0
0
0
0
0
0
0
0
0
0
0
0
0
0
0
0
0
0
0
0
0
0
0
0
0
0
0
0
0
0
0
0
SCALARS damp_viscous double 1
LOOKUP_TABLE default
0
0
0
0
0
0
0
0
0
0
0
0
0
0
0
0
0
0
0
0
0
0
0
0
0
0
0
0
0
0
0
0
0
0
0
0
0
0
0
0
0
0
0
0
0
0
0
0
0
0
0
0
0
0
0
0
0
0
0
0
0
0
0
0
0
0
0
0
0
0
0
0
0
0
0
0
0
0
0
0
0
0
0
0
0
0
0
0
0
0
0
0
0
0
0
0
0
0
0
0
0
0
0
0
0
0
0
0
0
0
0
0
0
0
0
0
0
0
0
0
0
0
0
0
0
0
0
0
0
0
0
0
0
0
0
0
0
0
0
0
0
0
0
0
0
0
0
0
0
0
0
0
0
0
0
0
0
0
0
0
0
0
0
0
0
0
0
0
0
0
0
0
0
0
0
0
0
0
0
0
0
0
0
0
0
0
0
0
0
0
0
0
0
0
0
0
0
0
0
0
0
0
0
0
0
0
0
0
0
0
0
0
0
0
0
0
0
0
0
0
0
0
0
0
0
SCALARS damp_numerical double 1
LOOKUP_TABLE default
0.5
0.5
0.5
0.5
0.5
0.5
0.5
0.5
0.5
0.5
0.5
0.5
0.5
0.5
0.5
0.5
0.5
0.5
0.5
0.5
0.5
0.5
0.5
0.5
0.5
0.5
0.5
0.5
0.5
0.5
0.5
0.5
0.5
0.5
0.5
0.5
0.5
0.5
0.5
0.5
0.5
0.5
0.5
0.5
0.5
0.5
0.5
0.5
0.5
0.5
0.5
0.5
0.5
0.5
0.5
0.5
0.5
0.5
0.5
0.5
0.5
0.5
0.5
0.5
0.5
0.5
0.5
0.5
0.5
0.5
0.5
0.5
0.5
0.5
0.5
0.5
0.5
0.5
0.5
0.5
0.5
0.5
0.5
0.5
0.5
0.5
0.5
0.5
0.5
0.5
0.5
0.5
0.5
0.5
0.5
0.5
0.5
0.5
0.5
0.5
0.5
0.5
0.5
0.5
0.5
0.5
0.5
0.5
0.5
0.5
0.5
0.5
0.5
0.5
0.5
0.5
0.5
0.5
0.5
0.5
0.5
0.5
0.5
0.5
0.5
0.5
0.5
0.5
0.5
0.5
0.5
0.5
0.5
0.5
0.5
0.5
0.5
0.5
0.5
0.5
0.5
0.5
0.5
0.5
0.5
0.5
0.5
0.5
0.5
0.5
0.5
0.5
0.5
0.5
0.5
0.5
0.5
0.5
0.5
0.5
0.5
0.5
0.5
0.5
0.5
0.5
0.5
0.5
0.5
0.5
0.5
0.5
0.5
0.5
0.5
0.5
0.5
0.5
0.5
0.5
0.5
0.5
0.5
0.5
0.5
0.5
0.5
0.5
0.5
0.5
0.5
0.5
0.5
0.5
0.5
0.5
0.5
0.5
0.5
0.5
0.5
0.5
0.5
0.5
0.5
0.5
0.5
0.5
0.5
0.5
0.5
0.5
0.5
0.5
0.5
0.5
0.5
0.5
0.5
0.5
0.5
0.5
0.5
0.5
0.5
SCALARS quat double 4
LOOKUP_TABLE default
0.97999 0.0845182 -0.0197026 0.179129 
0.422936 0.19358 0.881935 0.076436 
0.994111 0.0621403 -0.0887725 0.000625093 
0.933896 0.135683 0.0158348 0.330419 
0.218235 0.323535 0.831742 0.394847 
0.793989 -0.210957 -0.179821 0.541057 
0.259029 0.245797 0.696789 0.622072 
0.947128 0.0660144 0.273627 0.154011 
-0.0365304 0.880471 0.448061 0.150592 
0.280702 0.130813 0.0579556 0.949071 
0.918938 0.12139 0.131632 0.351413 
0.895604 0.01201 0.325206 0.3033 
0.115508 0.577388 0.641376 0.491851 
0.442569 0.772878 0.454401 0.0176573 
0.798846 0.140547 -0.0327906 0.583966 
0.994999 0.0482477 -0.0874521 -0.00148736 
0.659493 0.140464 0.000434628 0.738471 
0.975481 0.0854987 -0.0158251 0.202177 
0.968206 0.104576 -0.0851094 0.210707 
0.872998 0.106465 0.203002 0.430499 
1 0.000646178 0.000193913 0.000461524 
0.464545 0.197074 0.639242 0.580284 
0.80546 0.16019 0.208233 0.531236 
0.973067 0.0554567 0.156413 0.16 
0.997568 -0.0170722 -0.0460608 0.0494452 
0.981667 0.108068 -0.0521947 0.148076 
0.422936 0.19358 0.881935 0.076436 
0.983815 0.0152489 -0.164839 0.0685803 
0.933896 0.135683 0.0158348 0.330419 
0.218235 0.323535 0.831742 0.394847 
0.773761 0.148602 0.586361 0.188125 
0.259029 0.245797 0.696789 0.622072 
0.947128 0.0660144 0.273627 0.154011 
0.283426 0.211518 0.219506 0.909256 
0.246965 0.828957 0.351127 -0.358536 
0.900348 0.122734 0.177626 0.377835 
0.895604 0.01201 0.325206 0.3033 
0.115508 0.577388 0.641376 0.491851 
0.767919 -0.531207 -0.357879 -0.00648594 
0.394342 0.851392 0.340147 0.0626618 
0.959315 0.071969 -0.192682 0.193412 
0.739367 0.294608 0.0376546 0.604256 
0.978851 0.0839264 0.0588436 0.177046 
0.265822 0.818528 0.506036 0.0572568 
0.872998 0.106465 0.203002 0.430499 
1 0.000646178 0.000193913 0.000461524 
0.464545 0.197074 0.639242 0.580284 
0.80546 0.16019 0.208233 0.531236 
0.973067 0.0554567 0.156413 0.16 
-0.390651 0.843054 0.35024 0.11825 
0.961677 0.154433 -0.179482 0.138251 
0.422936 0.19358 0.881935 0.076436 
0.982082 0.0499504 -0.160649 0.0849212 
0.933896 0.135683 0.0158348 0.330419 
0.218235 0.323535 0.831742 0.394847 
-0.519726 0.301079 0.765156 -0.231891 
0.259029 0.245797 0.696789 0.622072 
0.947128 0.0660144 0.273627 0.154011 
-0.287895 0.609682 0.118454 -0.728953 
0.267597 -0.495726 -0.26955 0.781018 
0.708827 0.421063 0.5488 0.138162 
0.895604 0.01201 0.325206 0.3033 
0.115508 0.577388 0.641376 0.491851 
-0.277315 0.68643 0.657157 0.141614 
0.861974 0.12475 -0.0112448 0.491235 
0.943749 0.115035 -0.298003 0.0854332 
0.634586 0.261251 -0.00741928 0.72732 
0.993127 0.0622928 0.0327805 0.0935126 
0.942591 -0.142056 0.294492 0.0679442 
0.872998 0.106465 0.203002 0.430499 
1 0.000646178 0.000193913 0.000461524 
0.464545 0.197074 0.639242 0.580284 
0.80546 0.16019 0.208233 0.531236 
0.973067 0.0554567 0.156413 0.16 
0.940176 -0.31652 0.0133785 -0.125317 
0.956761 0.161554 -0.231608 0.0697593 
0.422936 0.19358 0.881935 0.076436 
0.954578 0.0813168 -0.284163 0.0376831 
0.933896 0.135683 0.0158348 0.330419 
0.218235 0.323535 0.831742 0.394847 
0.946866 -0.280114 -0.06486 0.144133 
0.259029 0.245797 0.696789 0.622072 
0.947128 0.0660144 0.273627 0.154011 
0.204254 0.538656 0.156583 0.802254 
-0.0960154 0.889817 0.397401 0.20268 
0.906713 0.217729 0.149584 0.328771 
0.895604 0.01201 0.325206 0.3033 
0.115508 0.577388 0.641376 0.491851 
0.982963 0.0474595 0.142151 -0.10642 
0.68549 -0.267846 -0.156492 0.65869 
0.974683 0.222579 -0.0133358 -0.0165488 
0.545373 0.631941 -0.0832324 0.544326 
0.973073 0.079064 -0.00266342 0.216496 
0.935179 -0.261526 -0.158491 0.178674 
0.872998 0.106465 0.203002 0.430499 
1 0.000646178 0.000193913 0.000461524 
0.464545 0.197074 0.639242 0.580284 
0.80546 0.16019 0.208233 0.531236 
0.973067 0.0554567 0.156413 0.16 
0.637798 0.662807 0.377679 -0.106107 
0.96983 0.148392 -0.151658 0.120039 
0.422936 0.19358 0.881935 0.076436 
0.949528 0.131092 -0.284941 -0.00441705 
0.933896 0.135683 0.0158348 0.330419 
0.218235 0.323535 0.831742 0.394847 
0.952287 -0.0798181 0.164298 0.244509 
0.259029 0.245797 0.696789 0.622072 
0.947128 0.0660144 0.273627 0.154011 
0.19905 0.755326 0.494502 0.381222 
0.32959 -0.0368027 -0.238722 0.912703 
0.928784 0.225361 -0.0166108 0.293763 
0.895604 0.01201 0.325206 0.3033 
0.115508 0.577388 0.641376 0.491851 
0.85854 0.462269 0.209987 -0.0715682 
0.556631 0.602972 -0.0289871 0.570743 
0.970142 0.201472 -0.134634 -0.0103701 
0.700347 0.358089 -0.099298 0.609448 
0.956019 0.10165 -0.0505536 0.270443 
0.71759 0.556749 0.266588 0.32253 
0.872998 0.106465 0.203002 0.430499 
1 0.000646178 0.000193913 0.000461524 
0.464545 0.197074 0.639242 0.580284 
0.80546 0.16019 0.208233 0.531236 
0.973067 0.0554567 0.156413 0.16 
0.999266 0.000472963 0.00757677 0.0375344 
0.972766 0.154012 -0.129061 0.115538 
0.422936 0.19358 0.881935 0.076436 
0.937913 0.137037 -0.31026 0.0726527 
0.933896 0.135683 0.0158348 0.330419 
0.218235 0.323535 0.831742 0.394847 
0.632333 0.122349 0.741099 0.189627 
0.259029 0.245797 0.696789 0.622072 
0.947128 0.0660144 0.273627 0.154011 
-0.071287 0.895411 0.369082 0.23861 
0.104358 0.726795 0.606192 0.305631 
0.900657 0.266278 0.0581839 0.338421 
0.895604 0.01201 0.325206 0.3033 
0.115508 0.577388 0.641376 0.491851 
0.464808 0.747017 0.468804 0.0783749 
0.838709 0.441126 0.105858 0.301278 
0.983689 0.0924276 -0.147607 0.0450091 
0.747808 0.215716 0.00157672 0.627892 
0.970187 0.100301 -0.0214825 0.219581 
0.911224 0.213934 0.156942 0.315074 
0.872998 0.106465 0.203002 0.430499 
1 0.000646178 0.000193913 0.000461524 
0.464545 0.197074 0.639242 0.580284 
0.80546 0.16019 0.208233 0.531236 
0.973067 0.0554567 0.156413 0.16 
0.509842 0.793972 0.328475 0.0421255 
0.967296 0.141603 -0.180888 0.107548 
0.422936 0.19358 0.881935 0.076436 
0.985871 0.167076 -0.0118783 -0.00163749 
0.933896 0.135683 0.0158348 0.330419 
0.218235 0.323535 0.831742 0.394847 
0.842935 -0.0241319 0.440065 0.308579 
0.259029 0.245797 0.696789 0.622072 
0.947128 0.0660144 0.273627 0.154011 
-0.0868595 0.805091 0.338711 0.479122 
0.265719 0.201078 0.0851509 0.938994 
0.872665 0.304699 0.266316 0.273294 
0.895604 0.01201 0.325206 0.3033 
0.115508 0.577388 0.641376 0.491851 
0.894379 0.163055 0.408121 -0.0832883 
0.847463 0.278173 -0.0484353 0.449533 
0.896135 0.204022 -0.387655 0.0710005 
0.653265 0.443671 -0.0444895 0.6119 
0.96867 0.107195 -0.0312613 0.221836 
0.785729 0.506232 0.0913754 0.343524 
0.872998 0.106465 0.203002 0.430499 
1 0.000646178 0.000193913 0.000461524 
0.464545 0.197074 0.639242 0.580284 
0.80546 0.16019 0.208233 0.531236 
0.973067 0.0554567 0.156413 0.16 
0.9508 0.227783 0.209937 0.00466825 
0.978414 0.184697 -0.0292669 0.0879583 
0.422936 0.19358 0.881935 0.076436 
0.984169 0.120659 -0.128424 0.0189755 
0.933896 0.135683 0.0158348 0.330419 
0.218235 0.323535 0.831742 0.394847 
0.817025 0.00681567 0.498948 0.28892 
0.259029 0.245797 0.696789 0.622072 
0.947128 0.0660144 0.273627 0.154011 
0.0949278 0.81446 0.427637 0.380488 
0.181808 0.517156 0.425621 0.71996 
0.882441 0.316575 0.250119 0.241907 
0.895604 0.01201 0.325206 0.3033 
0.115508 0.577388 0.641376 0.491851 
0.744117 0.582845 0.326317 0.00992848 
0.821224 0.386846 0.0976355 0.407932 
0.996224 0.083591 -0.00531282 0.0228613 
0.692463 0.288423 -0.0955684 0.65435 
0.969279 0.0307937 0.125034 0.209565 
0.900991 0.245205 0.2753 0.228691 
0.872998 0.106465 0.203002 0.430499 
1 0.000646178 0.000193913 0.000461524 
0.464545 0.197074 0.639242 0.580284 
0.80546 0.16019 0.208233 0.531236 
0.973067 0.0554567 0.156413 0.16 
0.808432 0.541937 0.229644 0.002384 
0.987695 0.113077 0.0865597 0.064658 
0.422936 0.19358 0.881935 0.076436 
0.999938 0.00834925 0.00519597 0.00514693 
0.933896 0.135683 0.0158348 0.330419 
0.218235 0.323535 0.831742 0.394847 
0.822268 0.00687642 0.488428 0.292003 
0.259029 0.245797 0.696789 0.622072 
0.947128 0.0660144 0.273627 0.154011 
0.114949 0.809678 0.432343 0.379853 
0.241786 0.448885 0.409847 0.756351 
0.907485 0.19221 0.316201 0.198854 
0.895604 0.01201 0.325206 0.3033 
0.115508 0.577388 0.641376 0.491851 
0.835101 0.483927 0.255872 0.054317 
0.824488 0.388943 0.180706 0.369174 
0.997984 0.0571643 0.0186911 0.0202818 
0.733928 0.293165 0.134605 0.597734 
0.94956 0.0531351 0.230499 0.205872 
0.894099 0.242412 0.307197 0.217838 
0.872998 0.106465 0.203002 0.430499 
1 0.000646178 0.000193913 0.000461524 
0.464545 0.197074 0.639242 0.580284 
0.80546 0.16019 0.208233 0.531236 
0.973067 0.0554567 0.156413 0.16 
0.85666 0.475253 0.200024 0.0160836 
VECTORS vel double
0.0017841 -0.00181932 -0.0119572 
0 0 -0.00253517 
0.0298368 -0.00335592 0.0190288 
0 0 -0.00241103 
0 0 -0.00235823 
-0.0107796 -0.0520512 -0.0212752 
0 0 -0.00258286 
0 0 -0.00250503 
0.000508789 0.21384 0.0641105 
-0.000943705 0.000911941 0.000272648 
0.0426223 0.0552569 0.052457 
0 0 -0.0025874 
0 0 -0.00254024 
-0.106729 0.222409 0.0127454 
8.30289e-05 -0.000124385 -4.61841e-05 
0.000298597 -0.00369232 -0.00355654 
0.00127534 -0.0105377 0.00316155 
0.00172913 -0.000820985 0.00379042 
0.00381717 -0.0806625 -0.0164013 
0 0 -0.00249795 
0 0 -0.00255288 
0 0 -0.00249394 
0 0 -0.00259888 
0 0 -0.00256841 
-0.0297266 -0.0487825 -0.0204814 
0.0041435 -0.0102509 -0.0216888 
0 0 -0.00524318 
0.0781355 -0.00786776 0.0243722 
0 0 -0.0050025 
0 0 -0.00489669 
-0.16964 -0.0616011 -0.155891 
0 0 -0.00533407 
0 0 -0.00518916 
-0.32155 -0.104087 -0.0879531 
-0.00974211 0.0406482 6.75329e-05 
-0.0363588 0.0241142 -0.0625513 
0 0 -0.00533659 
0 0 -0.00524233 
-0.0657378 0.265808 -0.272649 
0.20507 -0.126343 -0.170507 
0.00467533 -0.00482292 -0.00491827 
0.0243737 -0.00192966 0.0223267 
0.0116819 -0.000246498 0.0139022 
0.116057 -0.308872 -0.398401 
0 0 -0.00517857 
0 0 -0.0052854 
0 0 -0.00515509 
0 0 -0.00536993 
0 0 -0.00530566 
-0.0211331 -0.200295 -0.269518 
0.00507876 -0.00508267 -0.0218609 
0 0 -0.00788229 
0.095555 0.00340062 0.00997299 
0 0 -0.00753878 
0 0 -0.00738556 
0.110367 -0.019232 -0.444908 
0 0 -0.00800844 
0 0 -0.00780996 
0.0833829 0.132318 -0.216088 
-0.0130146 0.158537 -0.043463 
0.01279 -0.058843 -0.183017 
0 0 -0.00800301 
0 0 -0.00786495 
-0.0777027 0.152013 -0.250988 
0.390325 -0.146612 -0.276543 
0.00251106 -0.000882793 -0.0151135 
-0.0166033 0.108524 -0.01544 
0.0430275 -0.0412531 0.0264623 
0.27167 -0.361187 -0.572534 
0 0 -0.00780054 
0 0 -0.00795223 
0 0 -0.00774477 
0 0 -0.00806562 
0 0 -0.00796761 
0.0574947 -0.405336 -0.170216 
-0.00762559 0.011193 -0.0315367 
0 0 -0.0103422 
0.0609314 0.00501794 0.000473731 
0 0 -0.00991636 
0 0 -0.00972313 
-0.00180681 -0.0685287 -0.283186 
0 0 -0.0104938 
0 0 -0.0102597 
0.164614 -0.0954221 -0.213315 
-0.0446239 0.124037 -0.0705024 
0.18685 -0.0820274 -0.256554 
0 0 -0.0104745 
0 0 -0.0102981 
0.000524658 -0.0793689 -0.490969 
0.113237 0.0393453 -0.667704 
0.00168905 0.00225219 -0.0081648 
-0.0249985 0.0220198 -0.0825921 
0.0240943 -0.0348311 -0.0203616 
0.0121814 -0.0538353 -1.01079 
0 0 -0.0102559 
0 0 -0.0104434 
0 0 -0.0101548 
0 0 -0.0105736 
0 0 -0.0104427 
0.00982394 -0.213703 -0.309215 
0.00817277 0.00534055 0.00625817 
0 0 -0.0125008 
0.0108573 -0.0368777 -0.00184825 
0 0 -0.0120185 
0 0 -0.0117937 
-0.292459 0.0412838 -0.482826 
0 0 -0.0126676 
0 0 -0.0124179 
0.0247303 -0.136924 -0.256161 
-0.152694 -0.0849545 -0.127563 
0.0824583 0.121579 -0.295465 
0 0 -0.0126301 
0 0 -0.0124226 
-0.0896544 0.0740326 -0.24032 
-0.113161 0.103406 -0.667718 
0.0544488 0.0699824 0.0260146 
-0.00217579 -0.164328 -0.108996 
-0.00999271 0.0733719 0.00175242 
-0.07155 0.0279947 -0.978319 
0 0 -0.0124227 
0 0 -0.0126357 
0 0 -0.0122666 
0 0 -0.0127701 
0 0 -0.0126088 
-0.0411697 0.189835 -0.472954 
-0.0498437 -0.0477796 -0.0721844 
0 0 -0.0142621 
-0.0562944 -0.074018 -0.0352479 
0 0 -0.0137499 
0 0 -0.0135023 
-0.0834953 0.0119528 -0.81581 
0 0 -0.014435 
0 0 -0.0141879 
-0.0509393 0.0514389 -0.243898 
0.117034 0.000559164 -0.248183 
-0.0119248 0.00373509 -0.333455 
0 0 -0.0143774 
0 0 -0.0141473 
-0.00462328 -0.0160283 -0.3031 
-0.029048 -0.0332951 -0.886324 
0.00195352 -0.0142204 -0.069715 
-0.0544443 -0.092448 -0.127888 
-0.16413 0.0479549 -0.105908 
-0.00351567 0.0942193 -1.12899 
0 0 -0.0142023 
0 0 -0.0144311 
0 0 -0.0139878 
0 0 -0.014559 
0 0 -0.014371 
0.0160449 -0.0307406 -0.30745 
0.0308651 0.00437682 0.168055 
0 0 -0.0155767 
0.092642 0.0845201 -0.0125674 
0 0 -0.0150559 
0 0 -0.0147933 
0.091301 -0.0198568 -0.842922 
0 0 -0.0157493 
0 0 -0.0155167 
-0.0554624 0.168421 -0.209712 
0.00384937 0.0850227 -0.541874 
-0.00209646 0.0385941 -0.181409 
0 0 -0.0156728 
0 0 -0.0154282 
0.0173143 -0.0322682 -0.33658 
0.0640789 0.0239146 -0.87564 
-0.0346449 -0.0685853 -0.099614 
0.0893343 0.0501598 -0.106478 
0.0648758 -0.0118492 0.281166 
0.0745828 0.0412387 -1.08993 
0 0 -0.0155401 
0 0 -0.0157766 
0 0 -0.0152714 
0 0 -0.0158917 
0 0 -0.0156824 
-0.00616686 -0.0932597 -0.559281 
-0.0701869 -0.000720818 -0.290508 
0 0 -0.0164379 
-0.0835552 0.0108198 -0.328729 
0 0 -0.0159199 
0 0 -0.0156486 
-0.0142012 0.0087054 -0.795065 
0 0 -0.0166072 
0 0 -0.0163919 
0.042402 -0.120167 -0.220339 
-0.0382859 -0.0433363 -0.872346 
-0.0495487 -0.0597244 -0.31886 
0 0 -0.0165162 
0 0 -0.0162634 
0.0555908 0.0213044 -0.569298 
-0.0146578 0.0153662 -1.03337 
-0.00772222 0.0436843 -0.123702 
-0.0463164 -0.0243002 -0.166949 
-0.100624 -0.0604842 -0.446261 
-0.0410657 -0.0175784 -1.12966 
0 0 -0.0164221 
0 0 -0.0166613 
0 0 -0.0161117 
0 0 -0.0167631 
0 0 -0.0165391 
0.00420408 0.050676 -0.796643 
0 0 -2.2455 
0 0 -0.0168609 
0 0 -2.2455 
0 0 -0.0163474 
0 0 -0.0160723 
0 0 -2.2455 
0 0 -0.0170277 
0 0 -0.0168235 
0 0 -2.2455 
0 0 -2.2455 
0 0 -2.2455 
0 0 -0.0169286 
0 0 -0.0166725 
0 0 -2.2455 
0 0 -2.2455 
0 0 -2.2455 
0 0 -2.2455 
0 0 -2.2455 
0 0 -2.2455 
0 0 -0.0168574 
0 0 -0.0170971 
0 0 -0.0165244 
0 0 -0.0171907 
0 0 -0.0169591 
0 0 -2.2455 
VECTORS spin double
0.135987 0.050192 -0.0172285 
0 0 0 
0.0774496 0.653945 -0.0325411 
0 0 0 
0 0 0 
1.40814 0.102161 -1.11669 
0 0 0 
0 0 0 
-5.77974 0.301546 -1.04806 
-0.0543395 0.0743303 0.0059777 
-0.692724 1.4088 -0.946992 
0 0 0 
0 0 0 
-4.45148 -2.04815 -1.53402 
-0.00616729 0.0455867 0.0072778 
0.088094 0.0216013 -0.00537108 
0.35789 0.103868 -0.0724862 
-0.0459169 0.0343891 -0.0230036 
2.27397 0.09123 0.0663485 
0 0 0 
0 0 0 
0 0 0 
0 0 0 
0 0 0 
1.32488 -0.746945 -0.162319 
0.0858579 -0.166625 -0.034737 
0 0 0 
0.122905 0.533726 -0.211189 
0 0 0 
0 0 0 
1.10432 -4.00852 -2.5356 
0 0 0 
0 0 0 
2.26647 -6.91831 -0.0157864 
-0.899878 -0.274297 0.58891 
-1.06408 -4.38498 4.50753 
0 0 0 
0 0 0 
0.655219 -0.032967 0.000972975 
2.26651 4.91131 -0.910978 
-0.0685473 0.128375 -0.0183569 
-0.517621 0.792431 -0.643763 
0.0550997 0.258527 -0.0907049 
6.02195 5.13557 -0.714496 
0 0 0 
0 0 0 
0 0 0 
0 0 0 
0 0 0 
5.87431 1.35106 0.440389 
-0.287212 0.103922 -0.0649306 
0 0 0 
-0.662402 -0.241644 -0.0691527 
0 0 0 
0 0 0 
-1.58787 12.9584 3.05597 
0 0 0 
0 0 0 
5.79171 0.862351 -0.166035 
-2.45322 0.231377 -0.268018 
2.50591 3.87204 0.0795878 
0 0 0 
0 0 0 
1.4614 0.397947 1.59164 
-1.47448 0.416852 0.68185 
0.00903726 -0.238895 -0.0626596 
-2.51946 -2.38276 0.935962 
1.41587 0.458284 -0.815416 
-5.21501 0.311608 -0.37259 
0 0 0 
0 0 0 
0 0 0 
0 0 0 
0 0 0 
-3.10054 0.434692 -0.184064 
-0.188469 -0.656367 0.17088 
0 0 0 
0.670659 -0.811935 0.587369 
0 0 0 
0 0 0 
-2.26645 0.29562 -1.63449 
0 0 0 
0 0 0 
1.04904 -0.523703 2.40628 
4.87396 -1.299 0.348932 
-2.88961 -0.564497 0.577834 
0 0 0 
0 0 0 
6.37231 1.84386 -0.468151 
-5.19979 -4.19113 1.43872 
-0.125431 0.314929 -0.174701 
4.40992 1.59677 1.47323 
-1.46859 -0.972462 -1.02122 
-3.43074 -7.05968 -0.556135 
0 0 0 
0 0 0 
0 0 0 
0 0 0 
0 0 0 
-2.55833 -1.09813 0.70536 
0.396486 1.24865 0.40117 
0 0 0 
0.753275 -0.683102 -0.792307 
0 0 0 
0 0 0 
-0.208544 -5.90449 0.413717 
0 0 0 
0 0 0 
-1.94659 -2.5015 -1.23429 
0.519907 -1.76343 0.752176 
-2.37642 -2.01226 0.251741 
0 0 0 
0 0 0 
-6.74146 -2.96905 -1.60056 
1.78862 -0.922535 2.43305 
-2.04859 1.07129 0.3616 
-1.58114 -2.24158 -0.503643 
-2.4735 -0.168297 0.884388 
0.655279 3.59356 0.588133 
0 0 0 
0 0 0 
0 0 0 
0 0 0 
0 0 0 
-9.44439 0.335659 -0.582122 
1.84809 -3.40736 -0.688366 
0 0 0 
1.87789 -1.1686 -2.28453 
0 0 0 
0 0 0 
-0.347436 7.75695 -1.6555 
0 0 0 
0 0 0 
-2.40478 0.814498 -0.20764 
-2.5169 7.47296 -1.07164 
4.59917 -0.373579 0.0575393 
0 0 0 
0 0 0 
9.27031 5.24122 0.408212 
0.698503 -1.80782 -1.14747 
5.74965 -3.51855 0.00109447 
0.346678 1.69395 -0.292913 
2.59877 -4.31416 2.46612 
0.339547 0.0042199 -0.392354 
0 0 0 
0 0 0 
0 0 0 
0 0 0 
0 0 0 
11.5474 1.59109 0.511266 
-4.71627 6.71444 0.584586 
0 0 0 
-8.50366 5.99247 0.48034 
0 0 0 
0 0 0 
0.399404 -5.24596 1.08303 
0 0 0 
0 0 0 
-0.124754 -0.97679 -0.189502 
1.0493 -12.7477 -0.12747 
-4.52141 0.0386326 0.981037 
0 0 0 
0 0 0 
-7.21553 -3.69359 2.44651 
-2.34208 5.05963 0.194761 
-3.27207 1.97537 -0.324309 
-3.8304 1.83273 -0.928026 
1.00418 10.8794 -0.678027 
0.763353 1.55665 -0.169892 
0 0 0 
0 0 0 
0 0 0 
0 0 0 
0 0 0 
-9.22015 -1.75334 1.67228 
6.46353 -11.0461 0.0651679 
0 0 0 
11.3213 -12.4425 1.68662 
0 0 0 
0 0 0 
-0.894791 2.6992 -0.265407 
0 0 0 
0 0 0 
5.61704 2.72966 0.366357 
1.71228 11.2855 2.17651 
6.16932 -0.827216 -0.0590411 
0 0 0 
0 0 0 
5.40748 5.41031 -1.2673 
2.56849 -5.55179 0.0343537 
2.81872 -2.34271 0.0988776 
8.45593 -7.45458 0.323235 
-0.194917 -12.5754 -0.226337 
0.196766 -3.38209 -0.00612638 
0 0 0 
0 0 0 
0 0 0 
0 0 0 
0 0 0 
4.34464 2.23046 -0.649773 
0 0 0 
0 0 0 
0 0 0 
0 0 0 
0 0 0 
0 0 0 
0 0 0 
0 0 0 
0 0 0 
0 0 0 
0 0 0 
0 0 0 
0 0 0 
0 0 0 
0 0 0 
0 0 0 
0 0 0 
0 0 0 
0 0 0 
0 0 0 
0 0 0 
0 0 0 
0 0 0 
0 0 0 
0 0 0 
VECTORS force double
-2.71838 4.64428 4.90122 
0 0 -1.2703 
0.387282 -2.86629 6.9608 
0 0 -1.27319 
0 0 -1.25126 
-0.946238 -1.98166 -0.729224 
0 0 -1.26799 
0 0 -1.29505 
15.6088 19.9984 54.6539 
0.374364 1.06913 0.671678 
-22.3795 -0.722789 -1.33815 
0 0 -1.24332 
0 0 -1.23167 
0.322422 -0.396549 -1.15254 
-1.00507 0.392367 -0.587208 
0.574216 1.06549 -2.15427 
0.413126 -0.918369 6.41736 
-3.54048 4.51971 -7.25617 
-0.594139 -0.457899 -2.8643 
0 0 -1.30294 
0 0 -1.30803 
0 0 -1.24005 
0 0 -1.29015 
0 0 -1.26567 
-0.15147 0.0235004 -6.26371 
3.43635 1.72652 13.1965 
0 0 -2.5421 
-2.93867 -1.93624 3.66927 
0 0 -2.58318 
0 0 -2.5476 
0 0 -13.6117 
0 0 -2.52588 
0 0 -2.60725 
0.061822 -3.10709 -7.16553 
-0.567218 7.77193 0.664673 
11.7399 0.979598 4.76652 
0 0 -2.47122 
0 0 -2.45799 
0 0 -13.6117 
-0.935215 -0.815329 -7.3883 
0.263558 2.54587 -5.10048 
0.878048 -0.603758 -0.603051 
-3.11364 12.219 11.0278 
0 0 -13.6117 
0 0 -2.62526 
0 0 -2.62296 
0 0 -2.48766 
0 0 -2.57157 
0 0 -2.52434 
0 0 -13.6117 
12.1032 -5.33325 19.8735 
0 0 -3.56116 
-2.73061 3.64022 -2.28649 
0 0 -3.67064 
0 0 -3.62289 
0 0 -13.6117 
0 0 -3.52732 
0 0 -3.68234 
23.4569 5.0442 16.4327 
-1.29239 5.98836 -0.782617 
-1.68227 -5.18524 -18.7868 
0 0 -3.44561 
0 0 -3.44151 
0 0 -13.6117 
0.853558 -0.315656 -13.1632 
-0.475974 0.471838 -5.45595 
-2.22735 1.84338 -0.311674 
13.9491 -9.79321 17.2708 
0 0 -13.6117 
0 0 -3.70442 
0 0 -3.68893 
0 0 -3.49784 