# vtk DataFile Version 2.0
Generated by NetDEM
ASCII 
DATASET POLYDATA
POINTS 500 double
-0.419128 -0.40836 -0.464158 
-0.449993 -0.193115 -0.450022 
-0.403878 -0.0132562 -0.460432 
-0.450042 0.106914 -0.450041 
-0.435552 0.351165 -0.449904 
-0.2713 -0.429887 -0.459035 
-0.302628 -0.223269 -0.450039 
-0.190828 -0.0111693 -0.450039 
-0.172225 0.17523 -0.463346 
-0.255408 0.367432 -0.463772 
-0.0551478 -0.396958 -0.461196 
-0.147531 -0.133297 -0.450042 
-0.054721 -0.0944842 -0.450025 
0.0388364 0.180597 -0.452949 
-0.0288818 0.318971 -0.443545 
0.193028 -0.401489 -0.463075 
0.169742 -0.210244 -0.46341 
0.172594 -0.00361835 -0.462444 
0.162018 0.206409 -0.464747 
0.297058 0.403859 -0.418986 
0.450009 -0.410222 -0.450018 
0.432744 -0.298319 -0.450013 
0.34024 -0.0114953 -0.450014 
0.375565 0.0849188 -0.450071 
0.372266 0.440422 -0.464886 
-0.431448 -0.411284 -0.394158 
-0.449994 -0.272289 -0.388946 
-0.406922 -0.0161688 -0.389117 
-0.446345 0.176982 -0.378482 
-0.449933 0.450088 -0.450014 
-0.33733 -0.406618 -0.407974 
-0.247042 -0.140582 -0.441122 
-0.158976 -0.101026 -0.215197 
-0.30525 0.164924 -0.464791 
-0.15207 0.405426 -0.452732 
-0.0904819 -0.389981 -0.398386 
0.307678 -0.248007 -0.138299 
-0.0463004 -0.0176023 -0.312422 
0.0306039 0.25984 -0.451503 
0.124443 0.302379 -0.433463 
0.201447 -0.41464 -0.390602 
0.167295 -0.206705 -0.390358 
0.175339 0.0177701 -0.386474 
0.196787 0.113601 -0.455066 
0.286366 0.367727 -0.326361 
0.380004 -0.450005 -0.39072 
0.435457 -0.355189 -0.367809 
0.275312 -0.211372 -0.45001 
0.45 0.141732 -0.414811 
0.42621 0.342172 -0.456417 
-0.436361 -0.441065 -0.326105 
-0.305614 -0.21559 -0.350431 
-0.301849 -0.00799997 -0.437725 
-0.288459 0.272165 -0.450011 
-0.450242 0.276608 -0.384088 
-0.183211 -0.371264 -0.451702 
0.184434 -0.337053 -0.303788 
-0.239971 -0.0531576 -0.181316 
-0.173097 0.0786412 -0.450521 
-0.35023 0.332543 -0.33739 
0.0444617 -0.438743 -0.449873 
0.205668 -0.284395 -0.161918 
0.204513 0.058819 -0.215189 
-0.0393736 0.224597 -0.395338 
0.25472 0.331835 -0.463844 
0.193791 -0.435813 -0.319748 
0.0527031 -0.0970601 -0.450766 
0.16061 0.062909 -0.332719 
0.269717 0.0644275 -0.441905 
0.11246 0.138039 -0.396772 
0.284088 -0.4489 -0.450006 
0.376369 -0.214237 -0.450079 
0.378774 -0.11019 -0.450041 
0.45 0.229668 -0.365637 
0.437516 0.256943 -0.459921 
-0.43282 -0.45295 -0.243198 
-0.176015 -0.158744 -0.357656 
-0.237282 -0.00413191 -0.352142 
-0.264645 0.0875399 -0.403621 
-0.355908 0.141536 -0.352958 
-0.163264 -0.449516 -0.395637 
-0.125031 -0.0565156 -0.389972 
-0.243782 0.0465819 -0.224432 
-0.0546299 0.130002 -0.446371 
-0.357026 0.382313 -0.406464 
0.0876236 -0.45129 -0.354705 
0.445484 -0.33893 -0.0861318 
-0.188279 -0.236827 -0.450009 
0.0163045 0.0476502 -0.450376 
0.0679702 0.398232 -0.41168 
0.25942 -0.445778 -0.246519 
0.152189 -0.318823 -0.401189 
0.117963 0.0694572 -0.27338 
0.266166 0.174165 -0.442232 
0.142605 0.450007 -0.450018 
0.34733 -0.30799 -0.365306 
0.449999 -0.105694 -0.380037 
0.388092 0.156398 -0.333978 
0.331775 0.310056 -0.41254 
0.438455 0.371328 -0.376828 
-0.386089 -0.43965 -0.170291 
-0.368928 -0.358449 -0.122722 
-0.294871 -0.0417321 -0.276694 
-0.362782 0.0678225 -0.419995 
-0.449766 0.431604 -0.351749 
-0.270733 -0.441253 -0.362692 
-0.0621807 -0.159562 -0.37448 
-0.245209 0.0358322 -0.124886 
-0.00235415 -0.0252192 -0.397937 
-0.424033 0.242477 -0.463564 
0.0834002 -0.341529 -0.440813 
0.355058 -0.211069 -0.0583646 
0.0417192 -0.120842 -0.352672 
0.0257549 0.0409416 -0.355534 
-0.0032195 0.43524 -0.464007 
0.301334 -0.386305 -0.219172 
0.259375 -0.315589 -0.423739 
0.0358838 0.0685213 -0.263743 
0.250019 0.244518 -0.38266 
0.347765 0.449903 -0.274182 
0.316913 -0.398502 -0.332703 
0.450068 -0.207325 -0.382958 
0.45 -0.0294451 -0.450007 
0.343841 0.21106 -0.405069 
0.400003 0.45243 -0.374295 
-0.462201 -0.452004 -0.127157 
-0.320837 -0.140405 -0.286381 
-0.451122 -0.0286803 -0.321527 
-0.252975 0.193454 -0.393167 
-0.303623 0.449994 -0.365952 
-0.167231 -0.374096 -0.341276 
-0.0842813 -0.221216 -0.450024 
-0.197323 -0.162838 -0.146595 
-0.133663 0.150133 -0.397455 
-0.227569 0.335406 -0.394329 
-0.0905257 -0.309092 -0.451237 
0.285388 -0.320003 -0.0725861 
0.450033 0.0529333 -0.163264 
0.0411181 0.121713 -0.333068 
-0.117868 0.312761 -0.411794 
0.152373 -0.442418 -0.245373 
0.240286 -0.140254 -0.394281 
0.107755 -0.0219719 -0.22669 
0.195591 0.307259 -0.340377 
0.199905 0.385904 -0.397742 
0.450007 -0.441866 -0.319771 
0.330864 -0.17302 -0.371146 
0.251155 -0.0595266 -0.450029 
0.447015 0.0469957 -0.382933 
0.440787 0.409362 -0.300466 
-0.438194 -0.45809 -0.0127234 
-0.227314 -0.173223 -0.273065 
-0.422836 -0.111191 -0.407447 
-0.206316 0.26989 -0.336133 
-0.337933 0.241786 -0.368595 
-0.142478 -0.291673 -0.371664 
0.128987 -0.450006 -0.0941039 
-0.303693 0.367942 -0.189371 
-0.104704 0.275552 -0.330854 
-0.221852 0.461412 -0.451564 
-0.00157853 -0.339012 -0.367062 
0.115508 -0.241805 -0.154477 
-0.18037 -0.0701781 -0.307846 
0.0171146 0.200347 -0.304881 
0.014744 0.295433 -0.350891 
0.0745511 -0.408558 -0.273983 
0.137523 -0.0981318 -0.400951 
0.255449 -0.116405 -0.265655 
0.234514 0.185495 -0.326747 
0.138083 0.448454 -0.350138 
0.385755 -0.230065 -0.309974 
0.344086 -0.0668812 -0.366849 
0.320146 0.0550701 -0.372445 
0.405625 0.301103 -0.310192 
0.446978 0.378173 -0.215971 
-0.325958 -0.446131 -0.0915707 
-0.449556 -0.0992583 -0.267704 
-0.358431 0.0106637 -0.249721 
-0.448365 0.0695779 -0.357251 
-0.4153 0.264724 -0.291112 
-0.264819 -0.310719 -0.446264 
-0.182121 -0.275717 -0.26061 
-0.14318 0.400235 -0.0852849 
-0.123046 0.190807 -0.333899 
-0.138351 0.441346 -0.354758 
0.00157853 -0.434773 -0.356844 
0.0160252 -0.0949475 -0.25958 
0.0156537 -0.224885 -0.45001 
-0.0253918 0.271016 -0.251812 
-0.00494183 0.408956 -0.370511 
0.071985 -0.425603 -0.172551 
0.0992937 -0.0409589 -0.332453 
0.284392 -0.160644 -0.190498 
0.202003 0.135279 -0.273706 
0.248175 0.45 -0.284015 
0.450001 -0.308611 -0.28052 
0.450005 -0.148013 -0.289444 
0.365018 0.0382225 -0.284763 
0.319495 0.250411 -0.307435 
0.383865 0.42827 -0.198751 
-0.24633 -0.444791 -0.165621 
-0.443686 0.232163 -0.200924 
-0.292596 0.187653 -0.188512 
-0.187093 0.0772588 -0.333175 
-0.371373 0.449789 -0.292403 
-0.228547 -0.348766 -0.244788 
-0.0436594 -0.25928 -0.31577 
0.0163004 -0.242427 -0.237551 
-0.138274 0.116881 -0.245646 
-0.16591 0.35046 -0.330162 
-0.0453063 -0.384841 -0.293856 
-0.188704 -0.0963866 0.168279 
-0.0297456 0.20628 -0.169973 
-0.0527622 0.10185 -0.331967 
0.10472 0.356092 -0.334941 
0.262761 -0.437703 -0.143401 
0.219568 -0.196628 -0.311308 
0.292081 -0.106723 -0.126889 
0.149373 0.225524 -0.293927 
0.193246 0.362555 -0.263977 
0.407661 -0.391698 -0.244354 
0.440403 -0.22511 -0.226319 
0.433548 -0.0314334 -0.315131 
0.303968 0.116553 -0.295531 
0.409058 0.403321 -0.125753 
-0.25749 -0.334045 -0.153559 
-0.41764 -0.334321 -0.3175 
-0.433108 0.3371 -0.135842 
-0.342637 0.324235 -0.0697898 
-0.448818 0.42298 -0.0138962 
-0.142196 -0.419494 -0.257618 
-0.0509121 0.138357 -0.0711627 
-0.259403 -0.174788 -0.0318179 
-0.182733 0.177519 -0.187465 
-0.158518 0.339168 -0.222935 
-0.0646844 -0.383659 -0.208979 
-0.1392 -0.141128 -0.0228623 
-0.111303 -0.023263 -0.174219 
-0.00790208 0.109846 -0.199083 
0.0264619 0.447494 -0.2796 
0.297608 -0.329345 -0.172655 
0.249811 -0.291425 -0.341153 
0.349561 -0.0527596 -0.0759009 
0.152887 0.276354 -0.227905 
0.209146 0.404109 -0.141459 
0.357492 -0.450027 -0.172595 
0.449942 -0.199283 -0.0876388 
0.337724 0.129306 -0.0129803 
0.450017 0.151621 -0.179734 
0.424602 0.38618 -0.0452106 
-0.296157 -0.320817 -0.348714 
-0.120129 -0.201743 -0.286762 
-0.326569 -0.0163877 -0.148722 
-0.220153 0.199073 -0.266908 
-0.421391 0.446218 -0.205888 
-0.249828 -0.43007 -0.273443 
0.0941513 -0.279871 -0.309547 
-0.307229 0.256813 -0.134682 
-0.245284 0.300311 -0.210227 
-0.149221 0.44291 -0.248339 
0.0142377 -0.381017 -0.166623 
0.450013 -0.390687 -0.000708349 
0.0763903 0.438564 -0.188894 
-0.0745127 0.406042 -0.32395 
-0.0398672 0.44787 -0.220995 
0.356225 -0.394432 -0.0936319 
0.372888 -0.0984387 -0.174803 
0.191285 -0.0244368 -0.291372 
0.219637 0.200933 -0.207196 
0.0899713 0.244003 -0.368361 
0.35324 -0.304444 -0.251507 
0.348164 -0.152316 -0.259567 
0.449968 0.0898127 -0.2657 
0.449761 0.212926 -0.267061 
0.407551 0.451278 -0.0221447 
-0.339904 -0.393872 0.00748941 
-0.138114 -0.34567 -0.154269 
-0.434906 -0.112354 -0.183746 
-0.450022 0.094872 -0.177499 
-0.344431 0.197331 -0.270451 
-0.146503 -0.444227 -0.173205 
-0.0659931 -0.282434 -0.193091 
-0.227082 0.45 -0.301596 
-0.282176 0.309551 -0.283066 
-0.226398 0.435429 -0.183514 
0.0401915 -0.406745 -0.0813313 
-0.115498 0.450004 0.116267 
0.0348045 0.182739 -0.0973113 
-0.0732922 0.306993 -0.203667 
0.00792224 0.365976 -0.198676 
0.271293 -0.415414 -0.0338306 
0.0288661 -0.0928659 -0.0161816 
0.145229 -0.0392825 -0.143024 
0.28716 0.174526 -0.151494 
0.0621202 0.260504 -0.165605 
0.400133 -0.282725 -0.155253 
0.450002 -0.142859 -0.170195 
0.330839 -0.0542391 -0.267907 
0.450006 0.27858 -0.191651 
0.301311 0.414699 -0.0869944 
-0.291286 -0.352711 -0.0631815 
-0.421386 -0.000190925 -0.189163 
-0.394304 -0.292465 -0.0719398 
-0.430595 0.137953 -0.286549 
-0.450005 0.450007 -0.110152 
-0.158472 -0.424339 -0.0732258 
-0.133849 -0.318259 -0.0582128 
-0.283333 0.0892083 -0.305774 
-0.134095 0.275939 -0.114461 
-0.245768 0.38407 -0.10342 
-0.0224959 -0.425573 -0.0185508 
-0.408114 -0.174445 -0.321241 
0.00596308 -0.00222495 -0.223523 
-0.0408476 0.289242 -0.0997546 
-0.0097174 0.443757 -0.132493 
0.150798 -0.387382 -0.0164316 
0.449918 0.00342971 0.0129907 
0.07562 -0.027669 -0.0772903 
0.299874 0.33725 -0.224522 
0.28342 0.449985 -0.190341 
0.373294 -0.449994 -0.0252152 
0.43716 -0.0489289 0.0851195 
0.246248 -0.054573 -0.350291 
0.346772 0.255975 -0.201604 
0.438427 0.452168 0.0693891 
-0.35116 -0.21404 -0.0161113 
-0.392576 -0.274483 -0.17461 
-0.41446 0.10178 -0.0974176 
-0.388537 0.320452 -0.212633 
-0.449999 0.361667 -0.280268 
-0.173417 -0.435448 0.0456093 
-0.0597631 -0.150632 -0.22558 
-0.223055 0.293287 -0.0948794 
-0.10115 0.388401 -0.171595 
-0.0744505 0.438859 -0.0509255 
-0.0917753 -0.448848 0.0237376 
0.0805172 -0.16602 -0.231483 
-0.0710207 0.0658568 -0.137026 
0.0365659 0.249583 -0.0393874 
0.00745766 0.423345 -0.0605413 
0.137532 -0.340747 -0.109464 
0.17807 -0.189742 -0.226973 
0.125016 0.150003 -0.190198 
0.312949 0.220902 -0.0679614 
0.170247 0.450005 -0.221323 
0.449998 -0.417106 -0.153542 
0.319518 -0.265408 0.0176846 
0.410943 -0.0208553 -0.218254 
0.368123 0.164499 -0.235598 
0.416213 0.272033 0.16535 
-0.420207 -0.379775 0.0544173 
-0.450011 -0.21736 -0.241247 
-0.365677 0.219148 -0.0838019 
-0.447623 0.0615182 -0.00691036 
-0.45004 0.193198 -0.10902 
-0.224682 -0.379681 -0.00416793 
-0.27759 -0.108045 -0.10402 
-0.324292 -0.106149 -0.192409 
-0.190727 0.355836 -0.00387224 
-0.133879 0.40042 0.020974 
0.0386119 -0.188314 -0.130224 
-0.150716 -0.249628 -0.129469 
0.219862 0.130572 -0.0973425 
0.105295 0.320446 -0.0586555 
-0.0220054 0.439672 0.030975 
0.079114 -0.216127 -0.0238779 
0.454149 -0.0683203 -0.112834 
0.281589 0.0635727 -0.0317062 
0.187869 0.225949 -0.121018 
0.102688 0.334568 0.0712119 
0.398107 -0.0808933 -0.00294279 
0.449571 -0.268424 -0.0153198 
0.364806 0.0107038 -0.132449 
0.427661 0.114226 -0.0875025 
0.324759 0.317 -0.12395 
-0.4277 -0.183548 -0.135976 
-0.450006 -0.23753 -0.0344768 
-0.398373 -0.00709578 -0.094014 
-0.449998 0.281032 0.0519163 
-0.340961 0.450021 -0.146129 
-0.238051 -0.302009 0.0608927 
-0.273861 -0.272948 -0.0193846 
-0.325701 0.0657372 -0.0532926 
-0.119954 0.218743 -0.0459349 
-0.124578 0.191261 0.0247342 
0.026705 -0.311407 -0.0178138 
-0.119974 -0.106359 -0.117766 
0.108641 0.113982 -0.0995698 
-0.156727 0.104867 -0.127022 
0.042331 0.406634 0.108671 
0.0402519 -0.291973 -0.148352 
0.28288 -0.0743871 -0.0173211 
0.26574 0.0235889 -0.103576 
0.185373 0.283354 -0.0414299 
0.144293 0.330355 -0.160421 
0.327333 -0.343092 0.0801774 
0.257122 -0.179469 -0.0744062 
0.416278 0.190542 -0.0239034 
0.406361 0.238174 -0.111273 
0.436901 0.281664 -0.023979 
-0.335916 -0.343248 0.0896567 
-0.337444 -0.229916 -0.245109 
-0.448432 -0.0621595 -0.0243988 
-0.449995 0.13024 0.06839 
-0.278702 0.367563 -0.00628876 
-0.0637024 -0.182529 -0.140309 
-0.177979 -0.232954 -0.0304254 
-0.235465 -0.00341874 -0.0333926 
-0.285283 0.219401 -0.0166198 
-0.204267 0.412711 0.0850217 
0.207776 -0.05981 -0.0998479 
0.000805023 -0.0809518 -0.161747 
-0.137667 -0.0326204 0.110587 
-0.0279909 0.246239 0.0285705 
-0.0732046 0.345139 0.0677936 
0.314839 -0.441163 0.066874 
0.330157 -0.210668 0.10213 
0.175902 0.0388327 -0.130183 
0.264223 0.287198 0.00423885 
0.239441 0.450002 -0.0165026 
0.448611 -0.166639 0.00689428 
0.316416 0.361643 -0.00856433 
0.449962 0.0888877 0.00662361 
0.432242 0.163365 0.0709963 
0.383611 0.364691 0.0641068 
-0.401901 -0.392876 0.143205 
-0.43074 -0.264788 0.0597831 
-0.196018 -0.0695494 -0.0759627 
-0.437473 0.278673 -0.0529133 
-0.387242 0.350044 0.0158976 
-0.210016 -0.392342 0.0964266 
-0.254076 -0.0109681 0.113713 
-0.0425909 -0.0153531 -0.0860322 
-0.276411 0.136627 -0.10473 
-0.286747 0.397791 0.152899 
0.189432 -0.435817 0.0501254 
0.117935 -0.136497 -0.14358 
0.0304198 0.0537392 -0.119087 
-0.0888381 0.108428 0.0650035 
-0.0416846 0.407422 0.153381 
0.310745 -0.415255 0.161692 
0.203449 -0.116668 -0.0044978 
0.0982183 0.191275 -0.0111146 
0.266553 0.170226 0.139308 
0.154596 0.418071 -0.0588221 
0.412183 -0.450008 0.0703439 
0.332969 -0.161186 0.0254381 
-0.21248 0.0997545 -0.0507635 
0.361341 0.211475 0.122556 
0.318858 0.44829 0.0543157 
-0.441687 -0.450314 0.17426 
-0.277298 0.0514994 0.0391579 
-0.393399 -0.00116744 0.0332292 
-0.416965 0.155451 -0.0225691 
-0.450005 0.416773 0.0858965 
-0.295828 -0.447261 0.0655808 
-0.237545 -0.153189 0.0633351 
-0.169918 0.032268 0.0334442 
-0.338597 0.126679 0.0368565 
-0.428352 0.404205 0.187637 
0.237976 -0.248212 0.117041 
-0.0466817 -0.14459 -0.0605793 
-0.0903604 0.0620667 -0.019948 
0.0227249 0.334237 0.0110516 
0.0112854 0.303482 0.100046 
0.189911 -0.246231 -0.0744261 
0.213254 -0.29283 0.0272061 
0.189579 -0.010472 -0.0251166 
0.191802 0.171081 -0.00298936 
0.0802248 0.425994 0.00762499 
0.426457 -0.352872 0.0893251 
0.449996 -0.146131 0.104778 
0.345062 0.00693889 0.0163019 
0.271167 0.167174 0.0513251 
0.451374 0.353371 0.115645 
-0.312563 -0.310098 0.153923 
-0.202686 -0.0621744 0.0405917 
-0.437739 -0.00828245 0.137371 
-0.371459 0.220718 0.0379903 
-0.360054 0.450007 0.114223 
-0.175228 -0.241185 0.0686438 
-0.190763 -0.193054 0.142769 
-0.087144 -0.0274726 0.0244462 
-0.307704 0.308072 0.0657889 
-0.214989 0.237808 0.0542335 
-0.047694 -0.117414 0.0356063 
-0.0175778 -0.25497 -0.0795529 
0.0183216 0.00267886 -0.00880915 
0.233798 -0.15916 0.0633909 
0.0123492 0.448165 0.21754 
0.216272 -0.365231 0.104396 
0.445557 -0.294092 0.156856 
0.306608 0.0629773 0.0925844 
0.179103 0.248701 0.0597074 
0.183568 0.366373 0.0217346 
0.406324 -0.408589 0.169908 
0.448795 -0.202359 0.187473 
0.323583 -0.0718627 0.0758064 
0.398277 0.0898071 0.129608 
0.232579 0.42465 0.0944722 
VERTICES 500 1000
1 0
1 1
1 2
1 3
1 4
1 5
1 6
1 7
1 8
1 9
1 10
1 11
1 12
1 13
1 14
1 15
1 16
1 17
1 18
1 19
1 20
1 21
1 22
1 23
1 24
1 25
1 26
1 27
1 28
1 29
1 30
1 31
1 32
1 33
1 34
1 35
1 36
1 37
1 38
1 39
1 40
1 41
1 42
1 43
1 44
1 45
1 46
1 47
1 48
1 49
1 50
1 51
1 52
1 53
1 54
1 55
1 56
1 57
1 58
1 59
1 60
1 61
1 62
1 63
1 64
1 65
1 66
1 67
1 68
1 69
1 70
1 71
1 72
1 73
1 74
1 75
1 76
1 77
1 78
1 79
1 80
1 81
1 82
1 83
1 84
1 85
1 86
1 87
1 88
1 89
1 90
1 91
1 92
1 93
1 94
1 95
1 96
1 97
1 98
1 99
1 100
1 101
1 102
1 103
1 104
1 105
1 106
1 107
1 108
1 109
1 110
1 111
1 112
1 113
1 114
1 115
1 116
1 117
1 118
1 119
1 120
1 121
1 122
1 123
1 124
1 125
1 126
1 127
1 128
1 129
1 130
1 131
1 132
1 133
1 134
1 135
1 136
1 137
1 138
1 139
1 140
1 141
1 142
1 143
1 144
1 145
1 146
1 147
1 148
1 149
1 150
1 151
1 152
1 153
1 154
1 155
1 156
1 157
1 158
1 159
1 160
1 161
1 162
1 163
1 164
1 165
1 166
1 167
1 168
1 169
1 170
1 171
1 172
1 173
1 174
1 175
1 176
1 177
1 178
1 179
1 180
1 181
1 182
1 183
1 184
1 185
1 186
1 187
1 188
1 189
1 190
1 191
1 192
1 193
1 194
1 195
1 196
1 197
1 198
1 199
1 200
1 201
1 202
1 203
1 204
1 205
1 206
1 207
1 208
1 209
1 210
1 211
1 212
1 213
1 214
1 215
1 216
1 217
1 218
1 219
1 220
1 221
1 222
1 223
1 224
1 225
1 226
1 227
1 228
1 229
1 230
1 231
1 232
1 233
1 234
1 235
1 236
1 237
1 238
1 239
1 240
1 241
1 242
1 243
1 244
1 245
1 246
1 247
1 248
1 249
1 250
1 251
1 252
1 253
1 254
1 255
1 256
1 257
1 258
1 259
1 260
1 261
1 262
1 263
1 264
1 265
1 266
1 267
1 268
1 269
1 270
1 271
1 272
1 273
1 274
1 275
1 276
1 277
1 278
1 279
1 280
1 281
1 282
1 283
1 284
1 285
1 286
1 287
1 288
1 289
1 290
1 291
1 292
1 293
1 294
1 295
1 296
1 297
1 298
1 299
1 300
1 301
1 302
1 303
1 304
1 305
1 306
1 307
1 308
1 309
1 310
1 311
1 312
1 313
1 314
1 315
1 316
1 317
1 318
1 319
1 320
1 321
1 322
1 323
1 324
1 325
1 326
1 327
1 328
1 329
1 330
1 331
1 332
1 333
1 334
1 335
1 336
1 337
1 338
1 339
1 340
1 341
1 342
1 343
1 344
1 345
1 346
1 347
1 348
1 349
1 350
1 351
1 352
1 353
1 354
1 355
1 356
1 357
1 358
1 359
1 360
1 361
1 362
1 363
1 364
1 365
1 366
1 367
1 368
1 369
1 370
1 371
1 372
1 373
1 374
1 375
1 376
1 377
1 378
1 379
1 380
1 381
1 382
1 383
1 384
1 385
1 386
1 387
1 388
1 389
1 390
1 391
1 392
1 393
1 394
1 395
1 396
1 397
1 398
1 399
1 400
1 401
1 402
1 403
1 404
1 405
1 406
1 407
1 408
1 409
1 410
1 411
1 412
1 413
1 414
1 415
1 416
1 417
1 418
1 419
1 420
1 421
1 422
1 423
1 424
1 425
1 426
1 427
1 428
1 429
1 430
1 431
1 432
1 433
1 434
1 435
1 436
1 437
1 438
1 439
1 440
1 441
1 442
1 443
1 444
1 445
1 446
1 447
1 448
1 449
1 450
1 451
1 452
1 453
1 454
1 455
1 456
1 457
1 458
1 459
1 460
1 461
1 462
1 463
1 464
1 465
1 466
1 467
1 468
1 469
1 470
1 471
1 472
1 473
1 474
1 475
1 476
1 477
1 478
1 479
1 480
1 481
1 482
1 483
1 484
1 485
1 486
1 487
1 488
1 489
1 490
1 491
1 492
1 493
1 494
1 495
1 496
1 497
1 498
1 499
POINT_DATA 500
SCALARS id int 1
LOOKUP_TABLE default
0
1
2
3
4
5
6
7
8
9
10
11
12
13
14
15
16
17
18
19
20
21
22
23
24
25
26
27
28
29
30
31
32
33
34
35
36
37
38
39
40
41
42
43
44
45
46
47
48
49
50
51
52
53
54
55
56
57
58
59
60
61
62
63
64
65
66
67
68
69
70
71
72
73
74
75
76
77
78
79
80
81
82
83
84
85
86
87
88
89
90
91
92
93
94
95
96
97
98
99
100
101
102
103
104
105
106
107
108
109
110
111
112
113
114
115
116
117
118
119
120
121
122
123
124
125
126
127
128
129
130
131
132
133
134
135
136
137
138
139
140
141
142
143
144
145
146
147
148
149
150
151
152
153
154
155
156
157
158
159
160
161
162
163
164
165
166
167
168
169
170
171
172
173
174
175
176
177
178
179
180
181
182
183
184
185
186
187
188
189
190
191
192
193
194
195
196
197
198
199
200
201
202
203
204
205
206
207
208
209
210
211
212
213
214
215
216
217
218
219
220
221
222
223
224
225
226
227
228
229
230
231
232
233
234
235
236
237
238
239
240
241
242
243
244
245
246
247
248
249
250
251
252
253
254
255
256
257
258
259
260
261
262
263
264
265
266
267
268
269
270
271
272
273
274
275
276
277
278
279
280
281
282
283
284
285
286
287
288
289
290
291
292
293
294
295
296
297
298
299
300
301
302
303
304
305
306
307
308
309
310
311
312
313
314
315
316
317
318
319
320
321
322
323
324
325
326
327
328
329
330
331
332
333
334
335
336
337
338
339
340
341
342
343
344
345
346
347
348
349
350
351
352
353
354
355
356
357
358
359
360
361
362
363
364
365
366
367
368
369
370
371
372
373
374
375
376
377
378
379
380
381
382
383
384
385
386
387
388
389
390
391
392
393
394
395
396
397
398
399
400
401
402
403
404
405
406
407
408
409
410
411
412
413
414
415
416
417
418
419
420
421
422
423
424
425
426
427
428
429
430
431
432
433
434
435
436
437
438
439
440
441
442
443
444
445
446
447
448
449
450
451
452
453
454
455
456
457
458
459
460
461
462
463
464
465
466
467
468
469
470
471
472
473
474
475
476
477
478
479
480
481
482
483
484
485
486
487
488
489
490
491
492
493
494
495
496
497
498
499
SCALARS type int 1
LOOKUP_TABLE default
0
0
0
0
0
0
0
0
0
0
0
0
0
0
0
0
0
0
0
0
0
0
0
0
0
0
0
0
0
0
0
0
0
0
0
0
0
0
0
0
0
0
0
0
0
0
0
0
0
0
0
0
0
0
0
0
0
0
0
0
0
0
0
0
0
0
0
0
0
0
0
0
0
0
0
0
0
0
0
0
0
0
0
0
0
0
0
0
0
0
0
0
0
0
0
0
0
0
0
0
0
0
0
0
0
0
0
0
0
0
0
0
0
0
0
0
0
0
0
0
0
0
0
0
0
0
0
0
0
0
0
0
0
0
0
0
0
0
0
0
0
0
0
0
0
0
0
0
0
0
0
0
0
0
0
0
0
0
0
0
0
0
0
0
0
0
0
0
0
0
0
0
0
0
0
0
0
0
0
0
0
0
0
0
0
0
0
0
0
0
0
0
0
0
0
0
0
0
0
0
0
0
0
0
0
0
0
0
0
0
0
0
0
0
0
0
0
0
0
0
0
0
0
0
0
0
0
0
0
0
0
0
0
0
0
0
0
0
0
0
0
0
0
0
0
0
0
0
0
0
0
0
0
0
0
0
0
0
0
0
0
0
0
0
0
0
0
0
0
0
0
0
0
0
0
0
0
0
0
0
0
0
0
0
0
0
0
0
0
0
0
0
0
0
0
0
0
0
0
0
0
0
0
0
0
0
0
0
0
0
0
0
0
0
0
0
0
0
0
0
0
0
0
0
0
0
0
0
0
0
0
0
0
0
0
0
0
0
0
0
0
0
0
0
0
0
0
0
0
0
0
0
0
0
0
0
0
0
0
0
0
0
0
0
0
0
0
0
0
0
0
0
0
0
0
0
0
0
0
0
0
0
0
0
0
0
0
0
0
0
0
0
0
0
0
0
0
0
0
0
0
0
0
0
0
0
0
0
0
0
0
0
0
0
0
0
0
0
0
0
0
0
0
0
0
0
0
0
0
0
0
0
0
0
0
0
0
0
0
0
0
0
0
0
0
0
0
0
0
0
0
0
0
0
0
0
0
0
0
0
0
0
0
0
0
0
0
0
0
0
0
0
0
0
0
0
0
0
0
0
0
0
0
0
0
0
0
0
0
0
0
0
0
0
0
0
0
0
0
0
SCALARS damp_viscous double 1
LOOKUP_TABLE default
0
0
0
0
0
0
0
0
0
0
0
0
0
0
0
0
0
0
0
0
0
0
0
0
0
0
0
0
0
0
0
0
0
0
0
0
0
0
0
0
0
0
0
0
0
0
0
0
0
0
0
0
0
0
0
0
0
0
0
0
0
0
0
0
0
0
0
0
0
0
0
0
0
0
0
0
0
0
0
0
0
0
0
0
0
0
0
0
0
0
0
0
0
0
0
0
0
0
0
0
0
0
0
0
0
0
0
0
0
0
0
0
0
0
0
0
0
0
0
0
0
0
0
0
0
0
0
0
0
0
0
0
0
0
0
0
0
0
0
0
0
0
0
0
0
0
0
0
0
0
0
0
0
0
0
0
0
0
0
0
0
0
0
0
0
0
0
0
0
0
0
0
0
0
0
0
0
0
0
0
0
0
0
0
0
0
0
0
0
0
0
0
0
0
0
0
0
0
0
0
0
0
0
0
0
0
0
0
0
0
0
0
0
0
0
0
0
0
0
0
0
0
0
0
0
0
0
0
0
0
0
0
0
0
0
0
0
0
0
0
0
0
0
0
0
0
0
0
0
0
0
0
0
0
0
0
0
0
0
0
0
0
0
0
0
0
0
0
0
0
0
0
0
0
0
0
0
0
0
0
0
0
0
0
0
0
0
0
0
0
0
0
0
0
0
0
0
0
0
0
0
0
0
0
0
0
0
0
0
0
0
0
0
0
0
0
0
0
0
0
0
0
0
0
0
0
0
0
0
0
0
0
0
0
0
0
0
0
0
0
0
0
0
0
0
0
0
0
0
0
0
0
0
0
0
0
0
0
0
0
0
0
0
0
0
0
0
0
0
0
0
0
0
0
0
0
0
0
0
0
0
0
0
0
0
0
0
0
0
0
0
0
0
0
0
0
0
0
0
0
0
0
0
0
0
0
0
0
0
0
0
0
0
0
0
0
0
0
0
0
0
0
0
0
0
0
0
0
0
0
0
0
0
0
0
0
0
0
0
0
0
0
0
0
0
0
0
0
0
0
0
0
0
0
0
0
0
0
0
0
0
0
0
0
0
0
0
0
0
0
0
0
0
0
0
0
0
0
0
0
0
0
0
0
0
0
0
0
0
0
0
0
0
0
0
0
0
0
0
0
SCALARS damp_numerical double 1
LOOKUP_TABLE default
0.5
0.5
0.5
0.5
0.5
0.5
0.5
0.5
0.5
0.5
0.5
0.5
0.5
0.5
0.5
0.5
0.5
0.5
0.5
0.5
0.5
0.5
0.5
0.5
0.5
0.5
0.5
0.5
0.5
0.5
0.5
0.5
0.5
0.5
0.5
0.5
0.5
0.5
0.5
0.5
0.5
0.5
0.5
0.5
0.5
0.5
0.5
0.5
0.5
0.5
0.5
0.5
0.5
0.5
0.5
0.5
0.5
0.5
0.5
0.5
0.5
0.5
0.5
0.5
0.5
0.5
0.5
0.5
0.5
0.5
0.5
0.5
0.5
0.5
0.5
0.5
0.5
0.5
0.5
0.5
0.5
0.5
0.5
0.5
0.5
0.5
0.5
0.5
0.5
0.5
0.5
0.5
0.5
0.5
0.5
0.5
0.5
0.5
0.5
0.5
0.5
0.5
0.5
0.5
0.5
0.5
0.5
0.5
0.5
0.5
0.5
0.5
0.5
0.5
0.5
0.5
0.5
0.5
0.5
0.5
0.5
0.5
0.5
0.5
0.5
0.5
0.5
0.5
0.5
0.5
0.5
0.5
0.5
0.5
0.5
0.5
0.5
0.5
0.5
0.5
0.5
0.5
0.5
0.5
0.5
0.5
0.5
0.5
0.5
0.5
0.5
0.5
0.5
0.5
0.5
0.5
0.5
0.5
0.5
0.5
0.5
0.5
0.5
0.5
0.5
0.5
0.5
0.5
0.5
0.5
0.5
0.5
0.5
0.5
0.5
0.5
0.5
0.5
0.5
0.5
0.5
0.5
0.5
0.5
0.5
0.5
0.5
0.5
0.5
0.5
0.5
0.5
0.5
0.5
0.5
0.5
0.5
0.5
0.5
0.5
0.5
0.5
0.5
0.5
0.5
0.5
0.5
0.5
0.5
0.5
0.5
0.5
0.5
0.5
0.5
0.5
0.5
0.5
0.5
0.5
0.5
0.5
0.5
0.5
0.5
0.5
0.5
0.5
0.5
0.5
0.5
0.5
0.5
0.5
0.5
0.5
0.5
0.5
0.5
0.5
0.5
0.5
0.5
0.5
0.5
0.5
0.5
0.5
0.5
0.5
0.5
0.5
0.5
0.5
0.5
0.5
0.5
0.5
0.5
0.5
0.5
0.5
0.5
0.5
0.5
0.5
0.5
0.5
0.5
0.5
0.5
0.5
0.5
0.5
0.5
0.5
0.5
0.5
0.5
0.5
0.5
0.5
0.5
0.5
0.5
0.5
0.5
0.5
0.5
0.5
0.5
0.5
0.5
0.5
0.5
0.5
0.5
0.5
0.5
0.5
0.5
0.5
0.5
0.5
0.5
0.5
0.5
0.5
0.5
0.5
0.5
0.5
0.5
0.5
0.5
0.5
0.5
0.5
0.5
0.5
0.5
0.5
0.5
0.5
0.5
0.5
0.5
0.5
0.5
0.5
0.5
0.5
0.5
0.5
0.5
0.5
0.5
0.5
0.5
0.5
0.5
0.5
0.5
0.5
0.5
0.5
0.5
0.5
0.5
0.5
0.5
0.5
0.5
0.5
0.5
0.5
0.5
0.5
0.5
0.5
0.5
0.5
0.5
0.5
0.5
0.5
0.5
0.5
0.5
0.5
0.5
0.5
0.5
0.5
0.5
0.5
0.5
0.5
0.5
0.5
0.5
0.5
0.5
0.5
0.5
0.5
0.5
0.5
0.5
0.5
0.5
0.5
0.5
0.5
0.5
0.5
0.5
0.5
0.5
0.5
0.5
0.5
0.5
0.5
0.5
0.5
0.5
0.5
0.5
0.5
0.5
0.5
0.5
0.5
0.5
0.5
0.5
0.5
0.5
0.5
0.5
0.5
0.5
0.5
0.5
0.5
0.5
0.5
0.5
0.5
0.5
0.5
0.5
0.5
0.5
0.5
0.5
0.5
0.5
0.5
0.5
0.5
0.5
0.5
0.5
0.5
0.5
0.5
0.5
0.5
0.5
0.5
0.5
0.5
0.5
0.5
0.5
0.5
0.5
0.5
0.5
0.5
0.5
0.5
0.5
0.5
0.5
0.5
0.5
0.5
0.5
0.5
0.5
0.5
0.5
0.5
0.5
0.5
0.5
0.5
0.5
0.5
0.5
0.5
0.5
0.5
0.5
0.5
0.5
0.5
0.5
0.5
0.5
0.5
0.5
0.5
0.5
0.5
0.5
0.5
SCALARS quat double 4
LOOKUP_TABLE default
0.962582 0.0898567 -0.0568826 0.249252 
0.788558 0.135569 0.599756 0.00943785 
0.984459 0.110695 -0.0296355 -0.133073 
-0.373158 -0.50286 -0.523818 -0.577495 
0.100445 0.711092 -0.410367 0.562013 
0.806457 -0.282218 -0.200444 0.479377 
0.0556123 -0.254875 -0.364192 0.894041 
0.870615 0.051312 0.345922 0.346028 
-0.0907326 0.419261 0.90319 -0.0153778 
0.0569258 0.0926554 0.00976127 0.994022 
0.93166 -0.135865 -0.0779831 0.327824 
0.137176 -0.924603 -0.184041 -0.304007 
0.0671104 0.414579 -0.062249 0.905398 
0.607592 0.705776 0.350732 -0.098486 
0.332541 0.822268 -0.215873 0.408277 
0.996506 0.0713158 -0.040723 0.0151835 
0.641436 0.0562787 -0.0352655 0.764297 
0.990062 0.0610516 -0.0225622 0.124665 
0.973807 0.117429 -0.0957173 0.169557 
-0.759362 0.182691 0.615558 0.105272 
0.833762 0.137872 0.507742 -0.167423 
-0.288416 0.85241 -0.288276 0.327277 
0.786082 -0.290051 -0.465253 -0.285457 
0.491255 0.723597 -0.452255 -0.174762 
0.984673 0.0929251 -0.0958229 0.112263 
0.930746 0.154991 -0.173138 0.282335 
-0.616786 0.689053 -0.330903 0.187841 
0.971747 0.142142 -0.172191 -0.0765055 
0.753742 -0.314329 -0.463563 0.343773 
-0.161844 0.38678 -0.326312 0.847189 
0.732047 0.342362 0.518686 0.279035 
0.210218 -0.756218 -0.243886 -0.569616 
0.199721 -0.0342514 -0.9342 0.293612 
0.141428 0.110361 0.0714426 0.98118 
0.532013 0.756396 0.160394 -0.345111 
0.417624 -0.150617 0.0193086 0.895842 
-0.296382 0.51291 -0.48568 0.642803 
0.255342 0.31523 0.279839 0.870127 
0.745895 -0.617417 -0.231065 0.0951063 
0.587366 0.627107 -0.119775 -0.497385 
0.946286 0.145919 -0.169222 0.233697 
0.695649 0.193136 -0.107177 0.683582 
0.97725 -0.206813 -0.0466612 -0.00574394 
0.0126774 0.824154 0.541717 -0.164779 
0.740803 -0.573043 -0.297946 -0.184555 
0.298876 0.255857 -0.674102 0.625138 
0.54678 -0.169128 0.152205 -0.805767 
-0.948388 0.135249 -0.175916 0.226543 
0.375378 0.767743 -0.414418 0.312921 
-0.846327 0.505207 0.093016 -0.140868 
0.926384 0.29648 -0.200953 -0.116316 
0.208401 -0.153945 0.919395 -0.295943 
0.799669 0.0886523 0.575288 -0.147357 
-0.651143 0.431828 -0.624012 -0.0121113 
-0.482646 0.517459 0.453523 -0.541853 
-0.598716 0.513242 0.472914 -0.393031 
0.0670217 0.216723 0.971254 -0.0721439 
0.0306719 -0.0744448 -0.872195 -0.482486 
-0.167168 0.0698377 0.780484 -0.59835 
0.353663 -0.914933 -0.194458 -0.00256022 
-0.447673 0.234917 0.652664 -0.564298 
-0.868956 -0.0866485 0.0162676 0.486972 
-0.309939 -0.710293 0.139581 0.616392 
0.143913 0.227111 0.952488 0.143096 
-0.0882853 0.0331543 0.993561 -0.0627978 
0.908923 0.254098 -0.300007 -0.138887 
-0.123121 -0.954313 -0.188764 0.196206 
0.956535 -0.17126 -0.149176 0.182912 
0.891679 0.04025 0.412732 -0.181497 
-0.939175 -0.0588818 -0.0867524 -0.327043 
0.638598 -0.503061 -0.359503 0.458127 
-0.583062 -0.726039 -0.351272 -0.0975457 
0.339791 0.372757 0.0308732 -0.862926 
-0.607828 0.725321 -0.287518 -0.14761 
0.94325 -0.240445 0.022678 -0.227929 
0.959296 0.105058 -0.102242 -0.241373 
0.590914 -0.0468275 -0.633655 0.497101 
0.87396 -0.303068 0.36576 -0.102776 
-0.620113 -0.189063 -0.101955 0.754533 
-0.589072 0.215524 -0.078272 -0.774866 
0.902237 0.234035 0.0356779 -0.360448 
-0.336113 0.883077 0.0107818 0.327242 
0.854442 -0.169415 0.483949 -0.0837919 
-0.242146 0.82963 -0.278208 0.419143 
0.950638 -0.28091 0.0739623 -0.109122 
0.76472 -0.490434 -0.375777 0.182946 
-0.129564 -0.371256 0.00930049 -0.9194 
0.783411 0.406316 0.26231 -0.390344 
0.326445 0.926659 0.0697159 -0.17285 
-0.209364 0.557752 -0.675544 0.434419 
0.854602 -0.234963 0.404471 -0.2255 
-0.799225 0.36259 -0.472123 0.0828739 
0.882612 -0.0418239 -0.398252 0.246258 
0.819327 -0.416564 0.393441 0.0195433 
0.788879 0.0407563 0.347205 -0.505428 
0.237173 -0.512043 -0.452868 -0.690269 
0.258029 -0.79899 0.491286 0.231678 
0.243187 -0.271897 -0.700082 0.613855 
-0.58227 0.610244 0.25682 -0.471813 
0.986123 -0.101166 -0.00670275 -0.131462 
0.84233 -0.0915514 -0.101931 -0.521256 
0.340289 0.505711 0.7411 0.281479 
-0.0541041 0.436755 -0.892491 0.0988761 
-0.600594 -0.533396 -0.595495 -0.0126894 
-0.190762 -0.0688398 -0.51561 0.832477 
0.946689 -0.131027 0.239848 0.170545 
-0.795727 0.444323 0.253037 -0.324604 
0.171375 0.753815 0.631646 0.0584613 
0.820674 0.458814 -0.14953 -0.305983 
0.00327997 0.222895 -0.972656 0.0651784 
0.249358 -0.574713 -0.307573 0.716187 
-0.401599 -0.265659 0.685252 0.546418 
-0.0773957 -0.339784 0.223755 -0.910214 
0.829004 -0.256074 0.453928 0.202802 
-0.24425 0.0566046 0.0665032 0.965772 
0.90431 -0.358382 0.229711 -0.031905 
-0.0291658 -0.801772 0.593641 0.0624547 
0.427634 -0.0805538 -0.39521 0.80898 
0.882894 0.0895983 0.096235 0.450786 
0.209647 0.16533 -0.814792 0.514614 
-0.0133407 0.135038 0.386873 -0.912094 
-0.116149 -0.297792 -0.742715 0.588391 
0.314771 -0.469801 -0.423333 -0.707811 
-0.929357 -0.217681 -0.198954 0.2221 
0.779727 -0.577857 0.0200454 0.240218 
0.75827 0.323244 -0.542259 -0.162772 
0.423526 0.615823 0.5723 -0.337433 
0.524097 0.269799 0.210342 -0.779928 
-0.472521 0.231261 0.834591 -0.163402 
0.465116 -0.439748 0.691934 0.33394 
-0.0355223 0.509853 0.722916 -0.464952 
-0.99477 -0.0625087 -0.0556154 0.0585869 
-0.102583 -0.613198 -0.779076 -0.0806584 
0.201832 0.205318 -0.954157 0.0818128 
0.116268 -0.921854 0.176474 0.324843 
0.113498 -0.0645831 0.820653 0.556305 
0.265551 0.738398 0.226127 0.577164 
-0.663492 -0.73876 0.0500803 -0.107257 
0.297058 0.921108 -0.174473 -0.181315 
-0.0805755 0.811377 -0.57889 0.00788715 
-0.426093 0.127882 -0.848355 0.287029 
0.416325 -0.328463 0.22312 0.817926 
-0.086161 0.504536 -0.15299 0.845349 
0.934126 -0.283987 -0.182767 0.115573 
0.0155395 -0.514016 -0.78107 -0.354225 
-0.440756 -0.824128 0.226325 0.274453 
0.6888 -0.543444 0.395536 -0.271614 