# vtk DataFile Version 2.0
Generated by NetDEM
ASCII 
DATASET POLYDATA
POINTS 150 double
-0.417821 -0.405428 -0.463089 
-0.403333 -0.203333 -0.450032 
-0.41093 -0.00434409 -0.463768 
-0.40295 0.19705 -0.450038 
-0.402763 0.397237 -0.450028 
-0.235555 -0.434348 -0.453884 
-0.203538 -0.203538 -0.450014 
-0.203218 -0.00321788 -0.450024 
-0.174118 0.192948 -0.461791 
-0.247503 0.369478 -0.464576 
-0.0237111 -0.409956 -0.451223 
-0.00366947 -0.203669 -0.450036 
-0.00360232 -0.00360232 -0.45003 
0.0119878 0.17939 -0.448545 
-0.0372265 0.397761 -0.46328 
0.192251 -0.399797 -0.46303 
0.174603 -0.213095 -0.464883 
0.173092 -0.00859888 -0.461824 
0.161736 0.216077 -0.46195 
0.196913 0.396913 -0.450028 
0.396713 -0.403287 -0.45003 
0.39661 -0.20339 -0.450028 
0.396488 -0.00351175 -0.450014 
0.396508 0.196508 -0.450028 
0.396602 0.405763 -0.442745 
-0.407903 -0.401089 -0.38863 
-0.403333 -0.203333 -0.350064 
-0.41459 -0.00667507 -0.391734 
-0.40295 0.19705 -0.350065 
-0.402763 0.397237 -0.350049 
-0.233069 -0.403248 -0.358017 
-0.203538 -0.203538 -0.350021 
-0.203218 -0.00321788 -0.350042 
-0.221336 0.183212 -0.389971 
-0.186384 0.385753 -0.396224 
-0.00452829 -0.397547 -0.36551 
-0.00366947 -0.203669 -0.350066 
-0.00360232 -0.00360232 -0.350051 
0.00274455 0.19252 -0.34522 
-0.014758 0.390689 -0.373625 
0.19566 -0.398686 -0.389599 
0.195743 -0.214077 -0.392283 
0.184923 -0.0135901 -0.38412 
0.177381 0.192052 -0.370995 
0.196913 0.396913 -0.35005 
0.396713 -0.403287 -0.350051 
0.39661 -0.20339 -0.35005 
0.396488 -0.00351175 -0.350021 
0.396508 0.196508 -0.350049 
0.392778 0.394573 -0.342577 
-0.40742 -0.40397 -0.312697 
-0.403333 -0.203333 -0.250088 
-0.404095 -0.00446009 -0.310308 
-0.40295 0.19705 -0.250083 
-0.402763 0.397237 -0.250063 
-0.195191 -0.400974 -0.248066 
-0.203538 -0.203538 -0.249664 
-0.203218 -0.00321788 -0.250053 
-0.205461 0.19691 -0.29165 
-0.198611 0.4009 -0.319044 
0.00131703 -0.405083 -0.274023 
-0.00366947 -0.203669 -0.250084 
-0.00360232 -0.00360232 -0.250065 
-0.0120274 0.198377 -0.241736 
0.00553706 0.393496 -0.285834 
0.183516 -0.399696 -0.315634 
0.192094 -0.203245 -0.300726 
0.189122 -0.00493676 -0.304916 
0.204856 0.194159 -0.284871 
0.196913 0.396913 -0.250064 
0.396713 -0.403287 -0.250065 
0.39661 -0.20339 -0.250064 
0.396488 -0.00351175 -0.249602 
0.396508 0.196508 -0.250064 
0.39654 0.390007 -0.235352 
-0.40509 -0.403513 -0.233462 
-0.403333 -0.203333 -0.149525 
-0.404347 -0.00265488 -0.230977 
-0.40295 0.19705 -0.150091 
-0.402763 0.397237 -0.15007 
-0.198043 -0.402954 -0.119883 
-0.203538 -0.203538 -0.149026 
-0.203218 -0.00321788 -0.150059 
-0.200768 0.193888 -0.19177 
-0.205003 0.395928 -0.223753 
-0.00702663 -0.403458 -0.183074 
-0.00366947 -0.203669 -0.149675 
-0.00360232 -0.00360232 -0.150072 
-0.000327066 0.195856 -0.135414 
-0.0036321 0.399831 -0.193527 
0.199477 -0.403427 -0.224861 
0.195862 -0.202764 -0.211946 
0.19529 -0.00266769 -0.232331 
0.195909 0.196778 -0.197169 
0.196913 0.396913 -0.150071 
0.396713 -0.403287 -0.150072 
0.39661 -0.20339 -0.150071 
0.396488 -0.00351175 -0.148963 
0.396508 0.196508 -0.150071 
0.399832 0.396323 -0.124456 
-0.403633 -0.403633 -0.0145521 
-0.403333 -0.203333 -0.0142515 
-0.403998 -0.00399844 -0.0149174 
-0.40295 0.19705 -0.0138694 
-0.402763 0.397237 -0.0136822 
-0.203097 -0.403096 -0.013972 
-0.203538 -0.203538 -0.0144572 
-0.203218 -0.00321788 -0.0141368 
-0.203937 0.196063 -0.0148563 
-0.203347 0.396653 -0.0142659 
-0.00292062 -0.402921 -0.0138396 
-0.00366947 -0.203669 -0.0145884 
-0.00360232 -0.00360232 -0.0145213 
-0.00214632 0.197837 -0.0125962 
-0.00266816 0.397332 -0.0135871 
0.197698 -0.402302 -0.0132211 
0.196222 -0.203778 -0.0146972 
0.197391 -0.00260897 -0.0135279 
0.197198 0.197198 -0.0137212 
0.196913 0.396913 -0.0140059 
0.396713 -0.403287 -0.0142064 
0.39661 -0.20339 -0.0143094 
0.396488 -0.00351175 -0.0144307 
0.396508 0.196508 -0.0144111 
0.396534 0.396534 -0.0143854 
-0.403633 -0.403633 0.244332 
-0.403333 -0.203333 0.244633 
-0.403998 -0.00399844 0.243967 
-0.40295 0.19705 0.245015 
-0.402763 0.397237 0.245202 
-0.203099 -0.403099 0.244867 
-0.203538 -0.203538 0.244427 
-0.203218 -0.00321788 0.244748 
-0.203937 0.196063 0.244028 
-0.203347 0.396653 0.244619 
-0.00292062 -0.402921 0.245045 
-0.00366947 -0.203669 0.244296 
-0.00360232 -0.00360232 0.244363 
-0.00217008 0.19783 0.245796 
-0.00266816 0.397332 0.245297 
0.197698 -0.402302 0.245663 
0.196222 -0.203778 0.244187 
0.197391 -0.00260897 0.245357 
0.197198 0.197198 0.245163 
0.196913 0.396913 0.244879 
0.396713 -0.403287 0.244678 
0.39661 -0.20339 0.244575 
0.396488 -0.00351175 0.244454 
0.396508 0.196508 0.244473 
0.396534 0.396534 0.244499 
VERTICES 150 300
1 0
1 1
1 2
1 3
1 4
1 5
1 6
1 7
1 8
1 9
1 10
1 11
1 12
1 13
1 14
1 15
1 16
1 17
1 18
1 19
1 20
1 21
1 22
1 23
1 24
1 25
1 26
1 27
1 28
1 29
1 30
1 31
1 32
1 33
1 34
1 35
1 36
1 37
1 38
1 39
1 40
1 41
1 42
1 43
1 44
1 45
1 46
1 47
1 48
1 49
1 50
1 51
1 52
1 53
1 54
1 55
1 56
1 57
1 58
1 59
1 60
1 61
1 62
1 63
1 64
1 65
1 66
1 67
1 68
1 69
1 70
1 71
1 72
1 73
1 74
1 75
1 76
1 77
1 78
1 79
1 80
1 81
1 82
1 83
1 84
1 85
1 86
1 87
1 88
1 89
1 90
1 91
1 92
1 93
1 94
1 95
1 96
1 97
1 98
1 99
1 100
1 101
1 102
1 103
1 104
1 105
1 106
1 107
1 108
1 109
1 110
1 111
1 112
1 113
1 114
1 115
1 116
1 117
1 118
1 119
1 120
1 121
1 122
1 123
1 124
1 125
1 126
1 127
1 128
1 129
1 130
1 131
1 132
1 133
1 134
1 135
1 136
1 137
1 138
1 139
1 140
1 141
1 142
1 143
1 144
1 145
1 146
1 147
1 148
1 149
POINT_DATA 150
SCALARS id int 1
LOOKUP_TABLE default
0
1
2
3
4
5
6
7
8
9
10
11
12
13
14
15
16
17
18
19
20
21
22
23
24
25
26
27
28
29
30
31
32
33
34
35
36
37
38
39
40
41
42
43
44
45
46
47
48
49
50
51
52
53
54
55
56
57
58
59
60
61
62
63
64
65
66
67
68
69
70
71
72
73
74
75
76
77
78
79
80
81
82
83
84
85
86
87
88
89
90
91
92
93
94
95
96
97
98
99
100
101
102
103
104
105
106
107
108
109
110
111
112
113
114
115
116
117
118
119
120
121
122
123
124
125
126
127
128
129
130
131
132
133
134
135
136
137
138
139
140
141
142
143
144
145
146
147
148
149
SCALARS type int 1
LOOKUP_TABLE default
0
0
0
0
0
0
0
0
0
0
0
0
0
0
0
0
0
0
0
0
0
0
0
0
0
0
0
0
0
0
0
0
0
0
0
0
0
0
0
0
0
0
0
0
0
0
0
0
0
0
0
0
0
0
0
0
0
0
0
0
0
0
0
0
0
0
0
0
0
0
0
0
0
0
0
0
0
0
0
0
0
0
0
0
0
0
0
0
0
0
0
0
0
0
0
0
0
0
0
0
0
0
0
0
0
0
0
0
0
0
0
0
0
0
0
0
0
0
0
0
0
0
0
0
0
0
0
0
0
0
0
0
0
0
0
0
0
0
0
0
0
0
0
0
0
0
0
0
0
0
SCALARS damp_viscous double 1
LOOKUP_TABLE default
0
0
0
0
0
0
0
0
0
0
0
0
0
0
0
0
0
0
0
0
0
0
0
0
0
0
0
0
0
0
0
0
0
0
0
0
0
0
0
0
0
0
0
0
0
0
0
0
0
0
0
0
0
0
0
0
0
0
0
0
0
0
0
0
0
0
0
0
0
0
0
0
0
0
0
0
0
0
0
0
0
0
0
0
0
0
0
0
0
0
0
0
0
0
0
0
0
0
0
0
0
0
0
0
0
0
0
0
0
0
0
0
0
0
0
0
0
0
0
0
0
0
0
0
0
0
0
0
0
0
0
0
0
0
0
0
0
0
0
0
0
0
0
0
0
0
0
0
0
0
SCALARS damp_numerical double 1
LOOKUP_TABLE default
0.5
0.5
0.5
0.5
0.5
0.5
0.5
0.5
0.5
0.5
0.5
0.5
0.5
0.5
0.5
0.5
0.5
0.5
0.5
0.5
0.5
0.5
0.5
0.5
0.5
0.5
0.5
0.5
0.5
0.5
0.5
0.5
0.5
0.5
0.5
0.5
0.5
0.5
0.5
0.5
0.5
0.5
0.5
0.5
0.5
0.5
0.5
0.5
0.5
0.5
0.5
0.5
0.5
0.5
0.5
0.5
0.5
0.5
0.5
0.5
0.5
0.5
0.5
0.5
0.5
0.5
0.5
0.5
0.5
0.5
0.5
0.5
0.5
0.5
0.5
0.5
0.5
0.5
0.5
0.5
0.5
0.5
0.5
0.5
0.5
0.5
0.5
0.5
0.5
0.5
0.5
0.5
0.5
0.5
0.5
0.5
0.5
0.5
0.5
0.5
0.5
0.5
0.5
0.5
0.5
0.5
0.5
0.5
0.5
0.5
0.5
0.5
0.5
0.5
0.5
0.5
0.5
0.5
0.5
0.5
0.5
0.5
0.5
0.5
0.5
0.5
0.5
0.5
0.5
0.5
0.5
0.5
0.5
0.5
0.5
0.5
0.5
0.5
0.5
0.5
0.5
0.5
0.5
0.5
0.5
0.5
0.5
0.5
0.5
0.5
SCALARS quat double 4
LOOKUP_TABLE default
0.980141 0.0845144 -0.0310735 0.176681 
0.422936 0.19358 0.881935 0.076436 
0.997201 0.0197581 -0.0720043 0.00384566 
0.933896 0.135683 0.0158348 0.330419 
0.218235 0.323535 0.831742 0.394847 
0.852442 0.0309053 0.120847 0.507724 
0.259029 0.245797 0.696789 0.622072 
0.947128 0.0660144 0.273627 0.154011 
-0.0984968 0.868151 0.460286 0.157316 
0.273032 0.112804 0.0561789 0.953715 
0.901372 0.123345 0.186466 0.37087 
0.895604 0.01201 0.325206 0.3033 
0.115508 0.577388 0.641376 0.491851 
0.681153 0.603773 0.384481 0.153829 
0.804016 0.0900895 0.00145778 0.587741 
0.996659 0.0693814 -0.0429371 -0.00370282 
0.661819 0.149479 -0.00348769 0.734601 
0.974715 0.0680413 -0.0063555 0.212748 
0.981779 0.0355619 -0.0175699 0.185843 
0.872998 0.106465 0.203002 0.430499 
1 0.000646178 0.000193913 0.000461524 
0.464545 0.197074 0.639242 0.580284 
0.80546 0.16019 0.208233 0.531236 
0.973067 0.0554567 0.156413 0.16 
0.889665 0.403259 0.213314 0.0194044 
0.977699 0.121313 -0.100126 0.139151 
0.422936 0.19358 0.881935 0.076436 
0.974956 0.0645473 -0.19824 0.0774305 
0.933896 0.135683 0.0158348 0.330419 
0.218235 0.323535 0.831742 0.394847 
0.751986 -0.0501717 0.641632 0.142506 
0.259029 0.245797 0.696789 0.622072 
0.947128 0.0660144 0.273627 0.154011 
0.110739 0.736621 0.426353 0.513176 
0.0308737 0.83146 0.542743 0.114682 
0.856401 0.258189 0.322601 0.309587 
0.895604 0.01201 0.325206 0.3033 
0.115508 0.577388 0.641376 0.491851 
0.904852 0.231706 0.354997 -0.0391501 
0.580882 0.680359 0.19459 0.40227 
0.970715 0.057288 -0.180876 0.147355 
0.725056 0.32351 0.00760526 0.607929 
0.97425 0.107691 0.0393919 0.194134 
0.778773 0.378203 0.45728 0.203397 
0.872998 0.106465 0.203002 0.430499 
1 0.000646178 0.000193913 0.000461524 
0.464545 0.197074 0.639242 0.580284 
0.80546 0.16019 0.208233 0.531236 
0.973067 0.0554567 0.156413 0.16 
0.73112 0.602965 0.319004 0.0115046 
0.977305 0.120517 -0.135158 0.109925 
0.422936 0.19358 0.881935 0.076436 
0.977284 0.0487522 -0.206168 0.00578432 
0.933896 0.135683 0.0158348 0.330419 
0.218235 0.323535 0.831742 0.394847 
0.610623 0.164086 0.712671 0.303834 
0.259029 0.245797 0.696789 0.622072 
0.947128 0.0660144 0.273627 0.154011 
-0.054784 0.871639 0.389047 0.293066 
0.207666 0.115567 0.03632 0.97067 
0.876818 0.292537 0.301649 0.233709 
0.895604 0.01201 0.325206 0.3033 
0.115508 0.577388 0.641376 0.491851 
0.705174 0.572985 0.417189 0.0192621 
0.82787 0.259302 0.0284441 0.496573 
0.931143 0.16319 -0.321392 0.0552174 
0.645074 0.42496 0.00157183 0.635048 
0.974068 0.0779912 0.0856466 0.194356 
0.919824 0.165416 0.315572 0.164243 
0.872998 0.106465 0.203002 0.430499 
1 0.000646178 0.000193913 0.000461524 
0.464545 0.197074 0.639242 0.580284 
0.80546 0.16019 0.208233 0.531236 
0.973067 0.0554567 0.156413 0.16 
0.838904 0.380696 0.383297 -0.0662838 
0.968315 0.187442 -0.136653 0.0925051 
0.422936 0.19358 0.881935 0.076436 
0.961661 0.109483 -0.250638 0.0200528 
0.933896 0.135683 0.0158348 0.330419 
0.218235 0.323535 0.831742 0.394847 
0.861067 -0.123806 0.409389 0.27502 
0.259029 0.245797 0.696789 0.622072 
0.947128 0.0660144 0.273627 0.154011 
0.0910361 0.802744 0.394762 0.437581 
0.114045 0.577571 0.409447 0.696964 
0.892068 0.330905 0.0966834 0.292181 
0.895604 0.01201 0.325206 0.3033 
0.115508 0.577388 0.641376 0.491851 
0.770311 0.366839 0.510079 -0.108947 
0.785837 0.383456 -0.0943611 0.475938 
0.993615 0.104583 -0.0376606 0.0193021 
0.676321 0.34769 -0.0970543 0.642092 
0.972975 0.0550224 0.000771876 0.224259 
0.867648 0.370255 0.0491532 0.32815 
0.872998 0.106465 0.203002 0.430499 
1 0.000646178 0.000193913 0.000461524 
0.464545 0.197074 0.639242 0.580284 
0.80546 0.16019 0.208233 0.531236 
0.973067 0.0554567 0.156413 0.16 
0.834549 0.491081 0.249591 -0.00851106 
0.987695 0.113077 0.0865597 0.064658 
0.422936 0.19358 0.881935 0.076436 
0.999938 0.00834925 0.00519597 0.00514693 
0.933896 0.135683 0.0158348 0.330419 
0.218235 0.323535 0.831742 0.394847 
0.822289 0.00688502 0.488383 0.292021 
0.259029 0.245797 0.696789 0.622072 
0.947128 0.0660144 0.273627 0.154011 
0.114949 0.809678 0.432343 0.379853 
0.241786 0.448885 0.409847 0.756351 
0.907485 0.19221 0.316201 0.198854 
0.895604 0.01201 0.325206 0.3033 
0.115508 0.577388 0.641376 0.491851 
0.834563 0.484593 0.256437 0.0539873 
0.824488 0.388943 0.180706 0.369174 
0.997984 0.0571643 0.0186911 0.0202818 
0.733928 0.293165 0.134605 0.597734 
0.94956 0.0531351 0.230499 0.205872 
0.894099 0.242412 0.307197 0.217838 
0.872998 0.106465 0.203002 0.430499 
1 0.000646178 0.000193913 0.000461524 
0.464545 0.197074 0.639242 0.580284 
0.80546 0.16019 0.208233 0.531236 
0.973067 0.0554567 0.156413 0.16 
0.85666 0.475253 0.200024 0.0160836 
0.987695 0.113077 0.0865597 0.064658 
0.422936 0.19358 0.881935 0.076436 
0.999938 0.00834925 0.00519597 0.00514693 
0.933896 0.135683 0.0158348 0.330419 
0.218235 0.323535 0.831742 0.394847 
0.822268 0.00687642 0.488428 0.292003 
0.259029 0.245797 0.696789 0.622072 
0.947128 0.0660144 0.273627 0.154011 
0.114949 0.809678 0.432343 0.379853 
0.241786 0.448885 0.409847 0.756351 
0.907485 0.19221 0.316201 0.198854 
0.895604 0.01201 0.325206 0.3033 
0.115508 0.577388 0.641376 0.491851 
0.835101 0.483927 0.255872 0.054317 
0.824488 0.388943 0.180706 0.369174 
0.997984 0.0571643 0.0186911 0.0202818 
0.733928 0.293165 0.134605 0.597734 
0.94956 0.0531351 0.230499 0.205872 
0.894099 0.242412 0.307197 0.217838 
0.872998 0.106465 0.203002 0.430499 
1 0.000646178 0.000193913 0.000461524 
0.464545 0.197074 0.639242 0.580284 
0.80546 0.16019 0.208233 0.531236 
0.973067 0.0554567 0.156413 0.16 
0.85666 0.475253 0.200024 0.0160836 
VECTORS vel double
0.0199876 -0.00316382 0.00682231 
0 0 -0.00990754 
-0.0766286 -0.0307635 -0.0362267 
0 0 0.00483934 
0 0 0.000235576 
-0.200015 -0.0405527 -0.111877 
0 0 0.000114199 
0 0 -0.00093718 
0.0228657 -0.0506921 -0.0148887 
-0.0978347 0.0204523 0.0438705 
0.00220914 -0.0980072 -0.0434477 
0 0 -0.00112785 
0 0 0.00421084 
0.0711154 -0.177011 -0.056851 
-0.0235105 -0.089616 -0.049594 
-0.0127084 0.0850755 -0.00743844 
-0.0059955 0.0111065 0.00405116 
-0.0583162 -0.00721739 -0.0427607 
-0.199955 -0.013625 -0.160106 
0 0 0.000112873 
0 0 0.00437837 
0 0 0.000111496 
0 0 6.08238e-05 
0 0 -0.000464745 
-0.120033 0.109694 -0.00671601 
0.0210819 -0.0357995 -0.0645202 
0 0 -0.00872021 
-0.162137 -0.0329154 -0.0320687 
0 0 0.00966217 
0 0 0.000473267 
-0.292126 0.0159589 -0.18561 
0 0 0.000237312 
0 0 -0.00188177 
-0.200281 -0.019038 -0.125669 
0.218926 0.0110282 -0.168494 
-0.0020135 -0.166847 -0.0656979 
0 0 0.00159326 
0 0 0.00754323 
-0.00813994 0.00926823 -0.0424738 
-0.0316889 -0.211444 -0.0745257 
-0.147357 0.0404626 -0.00602564 
-0.0200425 -0.00100919 0.0066373 
-0.12818 -0.105207 -0.0103582 
-0.235411 -0.1602 -0.201489 
0 0 0.000264706 
0 0 0.0077966 
0 0 0.000262233 
0 0 0.000162725 
0 0 -0.000796379 
-0.0664515 0.013144 -0.152677 
0.121391 0.0117139 0.0791773 
0 0 0.00156876 
0.122749 0.00608172 0.0156251 
0 0 0.0125729 
0 0 0.00064551 
0.0166304 -0.0175941 -0.353897 
0 0 -0.13799 
0 0 -0.00259013 
-0.07482 0.0704867 -0.163029 
0.127647 0.0972618 -0.528917 
0.149706 0.0825871 0.00325522 
0 0 0.00705637 
0 0 0.00959394 
-0.0407689 0.0163688 -0.250136 
0.226763 -0.0333579 0.0135587 
-0.0958795 -0.0172951 -0.0831062 
-0.0200172 0.0824486 0.0544339 
0.0984051 0.00405955 0.240009 
0.186006 0.088682 -0.187878 
0 0 0.000369636 
0 0 0.00985467 
0 0 0.000366398 
0 0 -0.137204 
0 0 -0.00103512 
0.0148356 -0.060933 -0.133823 
-0.105638 -0.00206564 -0.257605 
0 0 -0.135878 
-0.0418582 0.00807461 -0.178045 
0 0 0.0134612 
0 0 0.000735076 
0.0397751 -0.0584652 -0.552657 
0 0 -0.130309 
0 0 -0.00296749 
0.0782456 -0.0554343 -0.110159 
-0.0507798 -0.0196246 -0.298928 
-0.0934462 -0.0303094 -0.157304 
0 0 -0.13833 
0 0 0.0105431 
-0.104062 -0.0139807 -0.607574 
-0.0194148 0.0560588 -0.514952 
0.0365333 -0.0102936 -0.214576 
-0.033054 -0.0413291 0.0824897 
-0.111464 0.0104725 -0.323301 
-0.00571031 -0.00418023 -0.272471 
0 0 0.000422523 
0 0 0.0107929 
0 0 0.000418901 
0 0 -0.129531 
0 0 -0.00115963 
0.0553897 -0.00530099 -0.174954 
0 0 -2.8341 
0 0 -2.8341 
0 0 -2.8341 
0 0 -2.8341 
0 0 -2.8341 
0.024331 0.0416431 -2.14514 
0 0 -2.8341 
0 0 -2.8341 
0 0 -2.8341 
0 0 -2.8341 
0 0 -2.8341 
0 0 -2.8341 
0 0 -2.8341 
0.0363735 0.0173174 -1.26583 
0 0 -2.8341 
0 0 -2.8341 
0 0 -2.8341 
0 0 -2.8341 
0 0 -2.8341 
0 0 -2.8341 
0 0 -2.8341 
0 0 -2.8341 
0 0 -2.8341 
0 0 -2.8341 
0 0 -2.8341 
0 0 -2.3436 
0 0 -2.3436 
0 0 -2.3436 
0 0 -2.3436 
0 0 -2.3436 
0 0 -2.3436 
0 0 -2.3436 
0 0 -2.3436 
0 0 -2.3436 
0 0 -2.3436 
0 0 -2.3436 
0 0 -2.3436 
0 0 -2.3436 
0 0 -2.3436 
0 0 -2.3436 
0 0 -2.3436 
0 0 -2.3436 
0 0 -2.3436 
0 0 -2.3436 
0 0 -2.3436 
0 0 -2.3436 
0 0 -2.3436 
0 0 -2.3436 
0 0 -2.3436 
0 0 -2.3436 
VECTORS spin double
0.0861257 0.541566 -0.000492875 
0 0 0 
1.057 -1.99342 0.0699378 
0 0 0 
0 0 0 
0.203279 -5.15935 1.50522 
0 0 0 
0 0 0 
1.49128 0.541421 0.447459 
-0.132974 -3.00458 0.985013 
2.65507 0.742923 -1.64461 
0 0 0 
0 0 0 
4.15768 1.1951 1.93555 
2.39704 -0.33544 -0.565499 
-2.34718 -0.353454 0.131398 
-0.18179 -0.274552 0.124209 
-0.0668885 -1.68686 0.314785 
0.841843 -5.04062 -0.63425 
0 0 0 
0 0 0 
0 0 0 
0 0 0 
0 0 0 
-1.96434 -2.10609 -0.134919 
1.04519 -1.65296 -0.542879 
0 0 0 
-0.892105 -0.0524277 -0.14335 
0 0 0 
0 0 0 
-1.43897 1.92294 -0.927983 
0 0 0 
0 0 0 
-1.58086 -2.35438 2.25932 
-0.523104 10.8206 -0.866039 
-0.750228 -0.746372 -1.19758 
0 0 0 
0 0 0 
-6.58755 -1.98146 0.336009 
0.291439 0.471256 0.077915 
4.16352 -3.58641 3.01671 
0.60268 -0.257893 -0.0152413 
2.89603 -0.0950126 -0.294214 
2.15227 2.82213 0.371829 
0 0 0 
0 0 0 
0 0 0 
0 0 0 
0 0 0 
3.82899 2.94616 0.254385 
-3.23335 4.97409 0.34906 
0 0 0 
-0.252828 7.91151 1.02396 
0 0 0 
0 0 0 
1.95964 4.21454 0.317206 
0 0 0 
0 0 0 
-0.344564 5.3792 0.251069 
-2.35339 -16.3604 0.632548 
-4.49463 3.44286 -0.0881997 
0 0 0 
0 0 0 
6.44027 2.28339 -1.46487 
-5.4781 5.89221 0.843532 
-2.62263 4.30042 -0.733046 
-2.82671 0.185567 0.467619 
-4.60468 5.60408 -1.13561 
-8.46791 8.30555 -0.630351 
0 0 0 
0 0 0 
0 0 0 
0 0 0 
0 0 0 
-1.61154 -1.03829 0.882511 
5.03002 -13.0986 0.0777467 
0 0 0 
0.70457 -15.7725 -0.593517 
0 0 0 
0 0 0 
0.115563 -4.57022 0.744973 
0 0 0 
0 0 0 
2.70473 -1.94784 -0.574647 
3.0936 6.90615 1.35893 
6.63122 -8.3868 -0.053278 
0 0 0 
0 0 0 
-4.74029 -5.61553 1.15452 
6.43113 -11.3864 -0.347897 
3.67958 -3.15236 -0.061769 
7.65741 -0.551954 1.59109 
4.22248 -12.9494 0.370007 
8.60872 -10.3752 0.0619035 
0 0 0 
0 0 0 
0 0 0 
0 0 0 
0 0 0 
0.430126 1.82624 -0.00096887 
0 0 0 
0 0 0 
0 0 0 
0 0 0 
0 0 0 
0.574423 -0.896037 0.0793042 
0 0 0 
0 0 0 
0 0 0 
0 0 0 
0 0 0 
0 0 0 
0 0 0 
3.87209 5.36383 -0.677684 
0 0 0 
0 0 0 
0 0 0 
0 0 0 
0 0 0 
0 0 0 
0 0 0 
0 0 0 
0 0 0 
0 0 0 
0 0 0 
0 0 0 
0 0 0 
0 0 0 
0 0 0 
0 0 0 
0 0 0 
0 0 0 
0 0 0 
0 0 0 
0 0 0 
0 0 0 
0 0 0 
0 0 0 
0 0 0 
0 0 0 
0 0 0 
0 0 0 
0 0 0 
0 0 0 
0 0 0 
0 0 0 
0 0 0 
0 0 0 
0 0 0 
0 0 0 
VECTORS force double
-2.51483 -0.559247 -0.948187 
0 0 11.6012 
-1.52838 -20.8905 32.5114 
0 0 3.72521 
0 0 0.11152 
-2.57269 -2.25425 -5.64574 
0 0 0.210836 
0 0 -0.466612 
2.78217 -0.930362 -1.3832 
2.35107 -1.79921 -1.63785 
0.245296 -16.9083 6.46527 
0 0 7.05138 
0 0 -0.489619 
16.6068 -3.50399 37.3951 
-47.9528 -13.9642 -100.017 
-7.70231 1.8828 0.75399 
10.9746 12.9569 0.274901 
-1.65159 -4.28391 1.16857 
-0.00464141 -0.286138 -7.82142 
0 0 0.229777 
0 0 -0.576659 
0 0 0.230247 
0 0 0.291946 
0 0 0.328713 
-0.506454 4.8057 3.29525 
-0.265693 -0.0234916 -17.6363 
0 0 19.8248 
6.22284 -12.0858 25.5293 
0 0 3.99842 
0 0 0.216386 
-0.652945 -0.623271 -10.6258 
0 0 0.320196 
0 0 -0.974218 
0 0 -13.6117 
0.978125 -2.68116 -34.9457 
-1.15467 -2.33224 7.61523 
0 0 13.5708 
0 0 -1.08784 
-73.6929 16.9402 12.4067 
28.1847 35.4411 -46.8355 
0.172971 -0.133259 -4.26409 
10.8487 7.99507 5.07095 
-5.21827 -3.31471 -2.98655 
-0.706481 -0.0538366 -13.8588 
0 0 0.430932 
0 0 -1.21898 
0 0 0.43163 
0 0 0.453319 
0 0 0.603787 
0.747075 -0.0619305 1.92329 
0.265693 0.0234916 -9.58714 
0 0 16.3596 
-2.49585 4.84827 48.9544 
0 0 2.14072 
0 0 0.316788 
0 0 -13.6117 
0 0 -13.6117 
0 0 -1.41654 
0 0 -13.6117 
7.38648 0.868793 14.1898 
-1.48808 1.2307 7.51144 
0 0 14.3659 
0 0 -1.13393 
274.628 -92.0707 -851.089 
25.3824 -14.572 148.671 
0 0 -13.6117 
-2.2408 5.59306 6.60087 
0.271965 0.405591 -11.2471 
0 0 -13.6117 
0 0 0.587536 
0 0 -1.2384 
0 0 0.588189 
0 0 -13.6117 
0 0 0.80322 
0 0 -13.6117 
0 0 -13.6117 
0 0 -13.6117 
-1.87044 -3.24259 -12.9266 
0 0 1.33801 
0 0 0.378116 
-225.068 -385.209 -4271.34 
0 0 -13.6117 
0 0 -1.67549 
0 0 -13.6117 
-8.3646 1.81237 -20.0794 
0.576993 -1.30542 -19.5358 
0 0 -13.6117 
0 0 -0.958111 
-209.786 58.3646 -1123.16 
0 0 -13.6117 
0 0 -13.6117 
-2.02679 -3.7339 -4.00086 
0 0 -13.6117 
0 0 -13.6117 
0 0 0.671072 
0 0 -1.01383 
0 0 0.671637 
0 0 -13.6117 
0 0 0.910298 
0 0 -13.6117 
0 0 -13.6117 
0 0 -13.6117 
0 0 -13.6117 
0 0 -13.6117 
0 0 -13.6117 
225.068 385.209 4244.12 
0 0 -13.6117 
0 0 -13.6117 
0 0 -13.6117 
0 0 -13.6117 
0 0 -13.6117 
0 0 -13.6117 
0 0 -13.6117 
10.9571 14.8119 1934.46 
0 0 -13.6117 
0 0 -13.6117 
0 0 -13.6117 
0 0 -13.6117 
0 0 -13.6117 
0 0 -13.6117 
0 0 -13.6117 
0 0 -13.6117 
0 0 -13.6117 
0 0 -13.6117 
0 0 -13.6117 
0 0 -13.6117 
0 0 -13.6117 
0 0 -13.6117 
0 0 -13.6117 
0 0 -13.6117 
0 0 -13.6117 
0 0 -13.6117 
0 0 -13.6117 
0 0 -13.6117 
0 0 -13.6117 
0 0 -13.6117 
0 0 -13.6117 
0 0 -13.6117 
0 0 -13.6117 
0 0 -13.6117 
0 0 -13.6117 
0 0 -13.6117 
0 0 -13.6117 
0 0 -13.6117 
0 0 -13.6117 
0 0 -13.6117 
0 0 -13.6117 
0 0 -13.6117 
0 0 -13.6117 
0 0 -13.6117 
VECTORS moment double
0.0337867 -0.0766282 0.00332561 
0 0 0 
1.10297 0.662676 0.0215853 
0 0 0 
0 0 0 
0.0439311 -0.0836923 -0.00118422 
0 0 0 
0 0 0 
0.0239636 0.0653967 -0.000476618 
0.0489523 0.0930859 0.00437539 
0.181795 0.0456978 -0.252211 
0 0 0 
0 0 0 
0.0341388 0.289967 -0.0369018 
0.119846 -1.0677 0.358354 
-0.0288928 -0.121346 0.0141567 
0.00953872 0.000885872 0.233912 
0.0253597 0.0166319 -0.0263279 
0.0432208 -0.114566 0.0113546 
0 0 0 
0 0 0 
0 0 0 
0 0 0 
0 0 0 
-0.110332 -0.0710733 -0.0218951 
-0.012923 0.0629292 0.000485825 
0 0 0 
-1.1193 -0.306484 -0.202383 
0 0 0 
0 0 0 
-0.0531763 0.0760548 0.00424704 
0 0 0 
0 0 0 
0 0 0 
-0.145393 0.182285 -0.0295748 
-0.602563 0.0603659 -0.0405785 
0 0 0 
0 0 0 
-1.31033 -4.47889 -0.231903 
0.550898 1.66834 -0.520814 
0.0415004 0.0915346 0.000536979 
0.104444 -0.371264 -0.0270293 
-0.0767421 0.0451092 -0.0193892 
-0.00424624 0.0359285 0.00431305 
0 0 0 
0 0 0 
0 0 0 
0 0 0 
0 0 0 
0.280735 0.116728 -0.0130351 
0.0263223 -0.0811934 -0.0012638 
0 0 0 
0.236621 -0.126115 0.0782959 
0 0 0 
0 0 0 
0 0 0 
0 0 0 
0 0 0 
0 0 0 
0.0567917 -0.103064 0.0862537 
0.132296 -0.0517656 0.0192355 
0 0 0 
0 0 0 
1.71662 9.20184 -0.0973525 
1.21 -1.87528 -0.357644 
0 0 0 
0.200322 -0.135862 0.0285826 
0.0503431 -0.0608123 0.00464068 
0 0 0 
0 0 0 
0 0 0 
0 0 0 
0 0 0 
0 0 0 
0 0 0 
0 0 0 
0 0 0 
-0.118384 0.057529 -0.0509196 
0 0 0 
0 0 0 
31.2867 -31.9638 1.23801 
0 0 0 
0 0 0 
0 0 0 
0.113246 0.573766 0.0143195 
-0.0762011 0.0535737 -0.0192273 
0 0 0 
0 0 0 
-1.04918 -5.62937 0.368186 
0 0 0 
0 0 0 
-0.157439 0.20824 0.0477013 
0 0 0 
0 0 0 
0 0 0 
0 0 0 
0 0 0 
0 0 0 
0 0 0 
0 0 0 
0 0 0 
0 0 0 
0 0 0 
0 0 0 
0 0 0 
10.2166 -13.419 0.673996 
0 0 0 
0 0 0 
0 0 0 
0 0 0 
0 0 0 
0 0 0 
0 0 0 
6.28619 18.8486 -0.17867 
0 0 0 
0 0 0 
0 0 0 
0 0 0 
0 0 0 
0 0 0 
0 0 0 
0 0 0 
0 0 0 
0 0 0 
0 0 0 
0 0 0 
0 0 0 
0 0 0 
0 0 0 
0 0 0 
0 0 0 
0 0 0 
0 0 0 
0 0 0 
0 0 0 
0 0 0 
0 0 0 
0 0 0 
0 0 0 
0 0 0 
0 0 0 
0 0 0 
0 0 0 
0 0 0 
0 0 0 
0 0 0 
0 0 0 
0 0 0 
0 0 0 
0 0 0 
SCALARS shape_id int 1
LOOKUP_TABLE default
0
1
0
1
1
0
1
1
0
0
0
1
1
0
0
0
0
0
0
1
1
1
1
1
0
0
1
0
1
1
0
1
1
0
0
0
1
1
0
0
0
0
0
0
1
1
1
1
1
0
0
1
0
1
1
0
1
1
0
0
0
1
1
0
0
0
0
0
0
1
1
1
1
1
0
0
1
0
1
1
0
1
1
0
0
0
1
1
0
0
0
0
0
0
1
1
1
1
1
0
0
1
0
1
1
0
1
1
0
0
0
1
1
0
0
0
0
0
0
1
1
1
1
1
0
0
1
0
1
1
0
1
1
0
0
0
1
1
0
0
0
0
0
0
1
1
1
1
1
0
SCALARS size double 1
LOOKUP_TABLE default
0.1
0.1
0.1
0.1
0.1
0.1
0.1
0.1
0.1
0.1
0.1
0.1
0.1
0.1
0.1
0.1
0.1
0.1
0.1
0.1
0.1
0.1
0.1
0.1
0.1
0.1
0.1
0.1
0.1
0.1
0.1
0.1
0.1
0.1
0.1
0.1
0.1
0.1
0.1
0.1
0.1
0.1
0.1
0.1
0.1
0.1
0.1
0.1
0.1
0.1
0.1
0.1
0.1
0.1
0.1
0.1
0.1
0.1
0.1
0.1
0.1
0.1
0.1
0.1
0.1
0.1
0.1
0.1
0.1
0.1
0.1
0.1
0.1
0.1
0.1
0.1
0.1
0.1
0.1
0.1
0.1
0.1
0.1
0.1
0.1
0.1
0.1
0.1
0.1
0.1
0.1
0.1
0.1
0.1
0.1
0.1
0.1
0.1
0.1
0.1
0.1
0.1
0.1
0.1
0.1
0.1
0.1
0.1
0.1
0.1
0.1
0.1
0.1
0.1
0.1
0.1
0.1
0.1
0.1
0.1
0.1
0.1
0.1
0.1
0.1
0.1
0.1
0.1
0.1
0.1
0.1
0.1
0.1
0.1
0.1
0.1
0.1
0.1
0.1
0.1
0.1
0.1
0.1
0.1
0.1
0.1
0.1
0.1
0.1
0.1
SCALARS mass double 1
LOOKUP_TABLE default
1.38754
1.38754
1.38754
1.38754
1.38754
1.38754
1.38754
1.38754
1.38754
1.38754
1.38754
1.38754
1.38754
1.38754
1.38754
1.38754
1.38754
1.38754
1.38754
1.38754
1.38754
1.38754
1.38754
1.38754
1.38754
1.38754
1.38754
1.38754
1.38754
1.38754
1.38754
1.38754
1.38754
1.38754
1.38754
1.38754
1.38754
1.38754
1.38754
1.38754
1.38754
1.38754
1.38754
1.38754
1.38754
1.38754
1.38754
1.38754
1.38754
1.38754
1.38754
1.38754
1.38754
1.38754
1.38754
1.38754
1.38754
1.38754
1.38754
1.38754
1.38754
1.38754
1.38754
1.38754
1.38754
1.38754
1.38754
1.38754
1.38754
1.38754
1.38754
1.38754
1.38754
1.38754
1.38754
1.38754
1.38754
1.38754
1.38754
1.38754
1.38754
1.38754
1.38754
1.38754
1.38754
1.38754
1.38754
1.38754
1.38754
1.38754
1.38754
1.38754
1.38754
1.38754
1.38754
1.38754
1.38754
1.38754
1.38754
1.38754
1.38754
1.38754
1.38754
1.38754
1.38754
1.38754
1.38754
1.38754
1.38754
1.38754
1.38754
1.38754
1.38754
1.38754
1.38754
1.38754
1.38754
1.38754
1.38754
1.38754
1.38754
1.38754
1.38754
1.38754
1.38754
1.38754
1.38754
1.38754
1.38754
1.38754
1.38754
1.38754
1.38754
1.38754
1.38754
1.38754
1.38754
1.38754
1.38754
1.38754
1.38754
1.38754
1.38754
1.38754
1.38754
1.38754
1.38754
1.38754
1.38754
1.38754
VECTORS moi double
0.00116818 0.00159003 0.00189584 
0.00138754 0.00138754 0.00138754 
0.00116818 0.00159003 0.00189584 
0.00138754 0.00138754 0.00138754 
0.00138754 0.00138754 0.00138754 
0.00116818 0.00159003 0.00189584 
0.00138754 0.00138754 0.00138754 
0.00138754 0.00138754 0.00138754 
0.00116818 0.00159003 0.00189584 
0.00116818 0.00159003 0.00189584 
0.00116818 0.00159003 0.00189584 
0.00138754 0.00138754 0.00138754 
0.00138754 0.00138754 0.00138754 
0.00116818 0.00159003 0.00189584 
0.00116818 0.00159003 0.00189584 
0.00116818 0.00159003 0.00189584 
0.00116818 0.00159003 0.00189584 
0.00116818 0.00159003 0.00189584 
0.00116818 0.00159003 0.00189584 
0.00138754 0.00138754 0.00138754 
0.00138754 0.00138754 0.00138754 
0.00138754 0.00138754 0.00138754 
0.00138754 0.00138754 0.00138754 
0.00138754 0.00138754 0.00138754 
0.00116818 0.00159003 0.00189584 
0.00116818 0.00159003 0.00189584 
0.00138754 0.00138754 0.00138754 
0.00116818 0.00159003 0.00189584 
0.00138754 0.00138754 0.00138754 
0.00138754 0.00138754 0.00138754 
0.00116818 0.00159003 0.00189584 
0.00138754 0.00138754 0.00138754 
0.00138754 0.00138754 0.00138754 
0.00116818 0.00159003 0.00189584 
0.00116818 0.00159003 0.00189584 
0.00116818 0.00159003 0.00189584 
0.00138754 0.00138754 0.00138754 
0.00138754 0.00138754 0.00138754 
0.00116818 0.00159003 0.00189584 
0.00116818 0.00159003 0.00189584 
0.00116818 0.00159003 0.00189584 
0.00116818 0.00159003 0.00189584 
0.00116818 0.00159003 0.00189584 
0.00116818 0.00159003 0.00189584 
0.00138754 0.00138754 0.00138754 
0.00138754 0.00138754 0.00138754 
0.00138754 0.00138754 0.00138754 
0.00138754 0.00138754 0.00138754 
0.00138754 0.00138754 0.00138754 
0.00116818 0.00159003 0.00189584 
0.00116818 0.00159003 0.00189584 
0.00138754 0.00138754 0.00138754 
0.00116818 0.00159003 0.00189584 
0.00138754 0.00138754 0.00138754 
0.00138754 0.00138754 0.00138754 
0.00116818 0.00159003 0.00189584 
0.00138754 0.00138754 0.00138754 
0.00138754 0.00138754 0.00138754 
0.00116818 0.00159003 0.00189584 
0.00116818 0.00159003 0.00189584 
0.00116818 0.00159003 0.00189584 
0.00138754 0.00138754 0.00138754 
0.00138754 0.00138754 0.00138754 
0.00116818 0.00159003 0.00189584 
0.00116818 0.00159003 0.00189584 
0.00116818 0.00159003 0.00189584 
0.00116818 0.00159003 0.00189584 
0.00116818 0.00159003 0.00189584 
0.00116818 0.00159003 0.00189584 
0.00138754 0.00138754 0.00138754 
0.00138754 0.00138754 0.00138754 
0.00138754 0.00138754 0.00138754 
0.00138754 0.00138754 0.00138754 
0.00138754 0.00138754 0.00138754 
0.00116818 0.00159003 0.00189584 
0.00116818 0.00159003 0.00189584 
0.00138754 0.00138754 0.00138754 
0.00116818 0.00159003 0.00189584 
0.00138754 0.00138754 0.00138754 
0.00138754 0.00138754 0.00138754 
0.00116818 0.00159003 0.00189584 
0.00138754 0.00138754 0.00138754 
0.00138754 0.00138754 0.00138754 
0.00116818 0.00159003 0.00189584 
0.00116818 0.00159003 0.00189584 
0.00116818 0.00159003 0.00189584 
0.00138754 0.00138754 0.00138754 
0.00138754 0.00138754 0.00138754 
0.00116818 0.00159003 0.00189584 
0.00116818 0.00159003 0.00189584 
0.00116818 0.00159003 0.00189584 
0.00116818 0.00159003 0.00189584 
0.00116818 0.00159003 0.00189584 
0.00116818 0.00159003 0.00189584 
0.00138754 0.00138754 0.00138754 
0.00138754 0.00138754 0.00138754 
0.00138754 0.00138754 0.00138754 
0.00138754 0.00138754 0.00138754 
0.00138754 0.00138754 0.00138754 
0.00116818 0.00159003 0.00189584 
0.00116818 0.00159003 0.00189584 
0.00138754 0.00138754 0.00138754 
0.00116818 0.00159003 0.00189584 
0.00138754 0.00138754 0.00138754 
0.00138754 0.00138754 0.00138754 
0.00116818 0.00159003 0.00189584 
0.00138754 0.00138754 0.00138754 
0.00138754 0.00138754 0.00138754 
0.00116818 0.00159003 0.00189584 
0.00116818 0.00159003 0.00189584 
0.00116818 0.00159003 0.00189584 
0.00138754 0.00138754 0.00138754 
0.00138754 0.00138754 0.00138754 
0.00116818 0.00159003 0.00189584 
0.00116818 0.00159003 0.00189584 
0.00116818 0.00159003 0.00189584 
0.00116818 0.00159003 0.00189584 
0.00116818 0.00159003 0.00189584 
0.00116818 0.00159003 0.00189584 
0.00138754 0.00138754 0.00138754 
0.00138754 0.00138754 0.00138754 
0.00138754 0.00138754 0.00138754 
0.00138754 0.00138754 0.00138754 
0.00138754 0.00138754 0.00138754 
0.00116818 0.00159003 0.00189584 
0.00116818 0.00159003 0.00189584 
0.00138754 0.00138754 0.00138754 
0.00116818 0.00159003 0.00189584 
0.00138754 0.00138754 0.00138754 
0.00138754 0.00138754 0.00138754 
0.00116818 0.00159003 0.00189584 
0.00138754 0.00138754 0.00138754 
0.00138754 0.00138754 0.00138754 
0.00116818 0.00159003 0.00189584 
0.00116818 0.00159003 0.00189584 
0.00116818 0.00159003 0.00189584 
0.00138754 0.00138754 0.00138754 