# vtk DataFile Version 2.0
Generated by NetDEM
ASCII 
DATASET POLYDATA
POINTS 175 double
-0.416881 -0.405353 -0.462736 
-0.403333 -0.203333 -0.450005 
-0.41193 -0.00762362 -0.464378 
-0.40295 0.19705 -0.450004 
-0.402763 0.397237 -0.450004 
-0.255394 -0.435546 -0.460827 
-0.203538 -0.203538 -0.450004 
-0.203218 -0.00321788 -0.450004 
-0.174858 0.191802 -0.461692 
-0.243887 0.369482 -0.463878 
-0.0241681 -0.410642 -0.45176 
-0.00366947 -0.203669 -0.450004 
-0.00360232 -0.00360232 -0.450004 
0.0258441 0.163538 -0.451208 
-0.0387341 0.394686 -0.464665 
0.189604 -0.398658 -0.464206 
0.174427 -0.212724 -0.465014 
0.172681 -0.00967742 -0.462621 
0.158528 0.215292 -0.463691 
0.196913 0.396913 -0.450004 
0.396713 -0.403287 -0.450004 
0.39661 -0.20339 -0.450003 
0.396488 -0.00351175 -0.450004 
0.396508 0.196508 -0.450003 
0.384505 0.425313 -0.449277 
-0.403746 -0.399426 -0.38834 
-0.403333 -0.203333 -0.349976 
-0.41505 -0.0103045 -0.391304 
-0.40295 0.19705 -0.349974 
-0.402763 0.397237 -0.349967 
-0.264016 -0.40137 -0.370749 
-0.203538 -0.203538 -0.34997 
-0.203218 -0.00321788 -0.349974 
-0.238003 0.180425 -0.399153 
-0.161539 0.389157 -0.419823 
-0.00571486 -0.396826 -0.36615 
-0.00366947 -0.203669 -0.349973 
-0.00360232 -0.00360232 -0.349968 
0.00123046 0.193435 -0.365528 
-0.00805495 0.381956 -0.376293 
0.189071 -0.398328 -0.391767 
0.194461 -0.210574 -0.392261 
0.18576 -0.0143234 -0.3838 
0.177914 0.184231 -0.375422 
0.196913 0.396913 -0.34997 
0.396713 -0.403287 -0.349973 
0.39661 -0.20339 -0.349963 
0.396488 -0.00351175 -0.349971 
0.396508 0.196508 -0.34995 
0.38702 0.395205 -0.371394 
-0.40424 -0.404591 -0.316277 
-0.403333 -0.203333 -0.249958 
-0.403185 -0.00513778 -0.311219 
-0.40295 0.19705 -0.249951 
-0.402763 0.397237 -0.249945 
-0.19346 -0.40194 -0.292606 
-0.203538 -0.203538 -0.249942 
-0.203218 -0.00321788 -0.249949 
-0.20943 0.199192 -0.307955 
-0.196269 0.41019 -0.340098 
0.00214576 -0.409308 -0.275355 
-0.00366947 -0.203669 -0.249947 
-0.00360232 -0.00360232 -0.249937 
-0.013582 0.200746 -0.278954 
0.0172655 0.388571 -0.294372 
0.176624 -0.398902 -0.318528 
0.186954 -0.199911 -0.30328 
0.185895 -0.00447963 -0.309736 
0.212426 0.178185 -0.294723 
0.196913 0.396913 -0.24995 
0.396713 -0.403287 -0.249947 
0.39661 -0.20339 -0.249933 
0.396488 -0.00351175 -0.249941 
0.396508 0.196508 -0.24991 
0.400149 0.380595 -0.260295 
-0.411709 -0.403758 -0.237067 
-0.403333 -0.203333 -0.149939 
-0.40745 0.00160807 -0.233304 
-0.40295 0.19705 -0.149933 
-0.402763 0.397237 -0.149926 
-0.189159 -0.405023 -0.189794 
-0.203538 -0.203538 -0.14992 
-0.203218 -0.00321788 -0.14993 
-0.193988 0.193845 -0.210435 
-0.206523 0.39533 -0.252561 
0.000900909 -0.398504 -0.181428 
-0.00366947 -0.203669 -0.149926 
-0.00360232 -0.00360232 -0.149919 
-0.00367976 0.194495 -0.176632 
0.000743986 0.4016 -0.207749 
0.204881 -0.400248 -0.228273 
0.195813 -0.20056 -0.213123 
0.193561 -0.00404196 -0.229031 
0.203718 0.205499 -0.206744 
0.196913 0.396913 -0.149929 
0.396713 -0.403287 -0.149928 
0.39661 -0.20339 -0.14991 
0.396488 -0.00351175 -0.149924 
0.396508 0.196508 -0.149886 
0.395363 0.400246 -0.152667 
-0.405335 -0.403745 -0.155262 
-0.403333 -0.203333 -0.0499265 
-0.403452 -0.00461443 -0.147997 
-0.40295 0.19705 -0.0499206 
-0.402763 0.397237 -0.0499132 
-0.205691 -0.402776 -0.0900594 
-0.203538 -0.203538 -0.0499041 
-0.203218 -0.00321788 -0.0499163 
-0.204056 0.193778 -0.116068 
-0.202171 0.395356 -0.146293 
-0.00970927 -0.404422 -0.0996659 
-0.00366947 -0.203669 -0.0499113 
-0.00360232 -0.00360232 -0.0498999 
-0.00142369 0.199066 -0.0670306 
-0.00750415 0.397824 -0.12 
0.195866 -0.404147 -0.151774 
0.194349 -0.207503 -0.124769 
0.192174 -0.00209545 -0.158055 
0.19251 0.197537 -0.11897 
0.196913 0.396913 -0.0499155 
0.396713 -0.403287 -0.0499142 
0.39661 -0.20339 -0.0498944 
0.396488 -0.00351175 -0.0499066 
0.396508 0.196508 -0.0498688 
0.399757 0.395017 -0.0458647 
-0.403633 -0.403633 0.0135436 
-0.403333 -0.203333 0.0500785 
-0.403998 -0.00399844 0.0131783 
-0.40295 0.19705 0.0500844 
-0.402763 0.397237 0.0500921 
-0.203061 -0.40313 0.0225039 
-0.203538 -0.203538 0.0501023 
-0.203218 -0.00321788 0.0500892 
-0.203937 0.196063 0.0132394 
-0.203347 0.396653 0.0138298 
-0.00292062 -0.402921 0.0142561 
-0.00366947 -0.203669 0.0500948 
-0.00360232 -0.00360232 0.0501069 
-0.00208499 0.197417 0.0459615 
-0.00266816 0.397332 0.0145086 
0.197698 -0.402302 0.0148746 
0.196222 -0.203778 0.0133985 
0.197391 -0.00260897 0.0145678 
0.197198 0.197198 0.0143745 
0.196913 0.396913 0.0500898 
0.396713 -0.403287 0.0500914 
0.39661 -0.20339 0.0501122 
0.396488 -0.00351175 0.0500997 
0.396508 0.196508 0.0501428 
0.396441 0.396616 0.0605963 
-0.403633 -0.403633 0.267523 
-0.403333 -0.203333 0.267824 
-0.403998 -0.00399844 0.267158 
-0.40295 0.19705 0.268206 
-0.402763 0.397237 0.268393 
-0.203099 -0.403099 0.268057 
-0.203538 -0.203538 0.267618 
-0.203218 -0.00321788 0.267938 
-0.203937 0.196063 0.267219 
-0.203347 0.396653 0.267809 
-0.00292062 -0.402921 0.268236 
-0.00366947 -0.203669 0.267487 
-0.00360232 -0.00360232 0.267554 
-0.00217008 0.19783 0.268986 
-0.00266816 0.397332 0.268488 
0.197698 -0.402302 0.268854 
0.196222 -0.203778 0.267378 
0.197391 -0.00260897 0.268547 
0.197198 0.197198 0.268354 
0.196913 0.396913 0.268069 
0.396713 -0.403287 0.267869 
0.39661 -0.20339 0.267766 
0.396488 -0.00351175 0.267645 
0.396508 0.196508 0.267664 
0.396534 0.396534 0.26769 
VERTICES 175 350
1 0
1 1
1 2
1 3
1 4
1 5
1 6
1 7
1 8
1 9
1 10
1 11
1 12
1 13
1 14
1 15
1 16
1 17
1 18
1 19
1 20
1 21
1 22
1 23
1 24
1 25
1 26
1 27
1 28
1 29
1 30
1 31
1 32
1 33
1 34
1 35
1 36
1 37
1 38
1 39
1 40
1 41
1 42
1 43
1 44
1 45
1 46
1 47
1 48
1 49
1 50
1 51
1 52
1 53
1 54
1 55
1 56
1 57
1 58
1 59
1 60
1 61
1 62
1 63
1 64
1 65
1 66
1 67
1 68
1 69
1 70
1 71
1 72
1 73
1 74
1 75
1 76
1 77
1 78
1 79
1 80
1 81
1 82
1 83
1 84
1 85
1 86
1 87
1 88
1 89
1 90
1 91
1 92
1 93
1 94
1 95
1 96
1 97
1 98
1 99
1 100
1 101
1 102
1 103
1 104
1 105
1 106
1 107
1 108
1 109
1 110
1 111
1 112
1 113
1 114
1 115
1 116
1 117
1 118
1 119
1 120
1 121
1 122
1 123
1 124
1 125
1 126
1 127
1 128
1 129
1 130
1 131
1 132
1 133
1 134
1 135
1 136
1 137
1 138
1 139
1 140
1 141
1 142
1 143
1 144
1 145
1 146
1 147
1 148
1 149
1 150
1 151
1 152
1 153
1 154
1 155
1 156
1 157
1 158
1 159
1 160
1 161
1 162
1 163
1 164
1 165
1 166
1 167
1 168
1 169
1 170
1 171
1 172
1 173
1 174
POINT_DATA 175
SCALARS id int 1
LOOKUP_TABLE default
0
1
2
3
4
5
6
7
8
9
10
11
12
13
14
15
16
17
18
19
20
21
22
23
24
25
26
27
28
29
30
31
32
33
34
35
36
37
38
39
40
41
42
43
44
45
46
47
48
49
50
51
52
53
54
55
56
57
58
59
60
61
62
63
64
65
66
67
68
69
70
71
72
73
74
75
76
77
78
79
80
81
82
83
84
85
86
87
88
89
90
91
92
93
94
95
96
97
98
99
100
101
102
103
104
105
106
107
108
109
110
111
112
113
114
115
116
117
118
119
120
121
122
123
124
125
126
127
128
129
130
131
132
133
134
135
136
137
138
139
140
141
142
143
144
145
146
147
148
149
150
151
152
153
154
155
156
157
158
159
160
161
162
163
164
165
166
167
168
169
170
171
172
173
174
SCALARS type int 1
LOOKUP_TABLE default
0
0
0
0
0
0
0
0
0
0
0
0
0
0
0
0
0
0
0
0
0
0
0
0
0
0
0
0
0
0
0
0
0
0
0
0
0
0
0
0
0
0
0
0
0
0
0
0
0
0
0
0
0
0
0
0
0
0
0
0
0
0
0
0
0
0
0
0
0
0
0
0
0
0
0
0
0
0
0
0
0
0
0
0
0
0
0
0
0
0
0
0
0
0
0
0
0
0
0
0
0
0
0
0
0
0
0
0
0
0
0
0
0
0
0
0
0
0
0
0
0
0
0
0
0
0
0
0
0
0
0
0
0
0
0
0
0
0
0
0
0
0
0
0
0
0
0
0
0
0
0
0
0
0
0
0
0
0
0
0
0
0
0
0
0
0
0
0
0
0
0
0
0
0
0
SCALARS damp_viscous double 1
LOOKUP_TABLE default
0
0
0
0
0
0
0
0
0
0
0
0
0
0
0
0
0
0
0
0
0
0
0
0
0
0
0
0
0
0
0
0
0
0
0
0
0
0
0
0
0
0
0
0
0
0
0
0
0
0
0
0
0
0
0
0
0
0
0
0
0
0
0
0
0
0
0
0
0
0
0
0
0
0
0
0
0
0
0
0
0
0
0
0
0
0
0
0
0
0
0
0
0
0
0
0
0
0
0
0
0
0
0
0
0
0
0
0
0
0
0
0
0
0
0
0
0
0
0
0
0
0
0
0
0
0
0
0
0
0
0
0
0
0
0
0
0
0
0
0
0
0
0
0
0
0
0
0
0
0
0
0
0
0
0
0
0
0
0
0
0
0
0
0
0
0
0
0
0
0
0
0
0
0
0
SCALARS damp_numerical double 1
LOOKUP_TABLE default
0.5
0.5
0.5
0.5
0.5
0.5
0.5
0.5
0.5
0.5
0.5
0.5
0.5
0.5
0.5
0.5
0.5
0.5
0.5
0.5
0.5
0.5
0.5
0.5
0.5
0.5
0.5
0.5
0.5
0.5
0.5
0.5
0.5
0.5
0.5
0.5
0.5
0.5
0.5
0.5
0.5
0.5
0.5
0.5
0.5
0.5
0.5
0.5
0.5
0.5
0.5
0.5
0.5
0.5
0.5
0.5
0.5
0.5
0.5
0.5
0.5
0.5
0.5
0.5
0.5
0.5
0.5
0.5
0.5
0.5
0.5
0.5
0.5
0.5
0.5
0.5
0.5
0.5
0.5
0.5
0.5
0.5
0.5
0.5
0.5
0.5
0.5
0.5
0.5
0.5
0.5
0.5
0.5
0.5
0.5
0.5
0.5
0.5
0.5
0.5
0.5
0.5
0.5
0.5
0.5
0.5
0.5
0.5
0.5
0.5
0.5
0.5
0.5
0.5
0.5
0.5
0.5
0.5
0.5
0.5
0.5
0.5
0.5
0.5
0.5
0.5
0.5
0.5
0.5
0.5
0.5
0.5
0.5
0.5
0.5
0.5
0.5
0.5
0.5
0.5
0.5
0.5
0.5
0.5
0.5
0.5
0.5
0.5
0.5
0.5
0.5
0.5
0.5
0.5
0.5
0.5
0.5
0.5
0.5
0.5
0.5
0.5
0.5
0.5
0.5
0.5
0.5
0.5
0.5
0.5
0.5
0.5
0.5
0.5
0.5
SCALARS quat double 4
LOOKUP_TABLE default
0.98021 0.0844793 -0.0186647 0.178055 
0.422936 0.19358 0.881935 0.076436 
0.994277 0.0644878 -0.0851692 -0.000551039 
0.933896 0.135683 0.0158348 0.330419 
0.218235 0.323535 0.831742 0.394847 
0.820075 -0.12023 -0.106522 0.549249 
0.259029 0.245797 0.696789 0.622072 
0.947128 0.0660144 0.273627 0.154011 
-0.107846 0.86386 0.460634 0.17301 
0.282504 0.161362 0.0719563 0.942855 
0.902985 0.131957 0.179306 0.367498 
0.895604 0.01201 0.325206 0.3033 
0.115508 0.577388 0.641376 0.491851 
0.504249 0.71447 0.4606 0.152029 
0.798232 0.113644 -0.0395373 0.590209 
0.995327 0.0548349 -0.0794296 -0.0028539 
0.660178 0.14125 -0.000327691 0.737709 
0.975145 0.0856187 -0.0143859 0.203848 
0.980226 0.0380738 -0.0588729 0.185043 
0.872998 0.106465 0.203002 0.430499 
1 0.000646178 0.000193913 0.000461524 
0.464545 0.197074 0.639242 0.580284 
0.80546 0.16019 0.208233 0.531236 
0.973067 0.0554567 0.156413 0.16 
0.965964 0.240468 0.0952263 0.00463689 
0.982375 0.107853 -0.0670439 0.137158 
0.422936 0.19358 0.881935 0.076436 
0.982667 0.0247424 -0.172471 0.0632994 
0.933896 0.135683 0.0158348 0.330419 
0.218235 0.323535 0.831742 0.394847 
0.687404 -0.0591608 0.711246 0.134555 
0.259029 0.245797 0.696789 0.622072 
0.947128 0.0660144 0.273627 0.154011 
0.155133 0.621735 0.451803 0.620688 
0.0505139 0.866321 0.447624 -0.215798 
0.866179 0.243322 0.320235 0.296612 
0.895604 0.01201 0.325206 0.3033 
0.115508 0.577388 0.641376 0.491851 
0.991097 -0.0470036 0.0961966 -0.0791444 
0.563628 0.717421 0.274935 0.303384 
0.959441 0.0849195 -0.192033 0.188111 
0.730203 0.291139 0.0184202 0.617821 
0.977574 0.0896366 0.0612696 0.180444 
0.710557 0.470417 0.496886 0.164078 
0.872998 0.106465 0.203002 0.430499 
1 0.000646178 0.000193913 0.000461524 
0.464545 0.197074 0.639242 0.580284 
0.80546 0.16019 0.208233 0.531236 
0.973067 0.0554567 0.156413 0.16 
0.433715 0.796829 0.420614 0.00622338 
0.957777 0.158269 -0.196407 0.137982 
0.422936 0.19358 0.881935 0.076436 
0.972684 0.0452832 -0.220401 0.0570832 
0.933896 0.135683 0.0158348 0.330419 
0.218235 0.323535 0.831742 0.394847 
0.3898 0.279463 0.815165 0.324751 
0.259029 0.245797 0.696789 0.622072 
0.947128 0.0660144 0.273627 0.154011 
-0.182107 0.918789 0.345568 -0.0569779 
0.201313 -0.38229 -0.197177 0.880028 
0.853903 0.352394 0.304143 0.232734 
0.895604 0.01201 0.325206 0.3033 
0.115508 0.577388 0.641376 0.491851 
0.438899 0.742851 0.501051 -0.0669882 
0.846049 0.181763 -0.0384603 0.499683 
0.936712 0.143283 -0.316117 0.0459468 
0.620788 0.42999 -0.0353009 0.654587 
0.985729 0.110942 0.00618125 0.126464 
0.924912 0.189315 0.261499 0.200787 
0.872998 0.106465 0.203002 0.430499 
1 0.000646178 0.000193913 0.000461524 
0.464545 0.197074 0.639242 0.580284 
0.80546 0.16019 0.208233 0.531236 
0.973067 0.0554567 0.156413 0.16 
0.933793 0.161687 0.30942 -0.0783995 
0.972372 0.119742 -0.180162 0.0877325 
0.422936 0.19358 0.881935 0.076436 
0.959709 0.0422233 -0.274002 0.0458114 
0.933896 0.135683 0.0158348 0.330419 
0.218235 0.323535 0.831742 0.394847 
0.914173 -0.23136 0.201956 0.264525 
0.259029 0.245797 0.696789 0.622072 
0.947128 0.0660144 0.273627 0.154011 
0.165671 0.729376 0.317386 0.582949 
-0.0612526 0.748595 0.448008 0.484916 
0.90903 0.179497 0.211703 0.310849 
0.895604 0.01201 0.325206 0.3033 
0.115508 0.577388 0.641376 0.491851 
0.940968 0.165288 0.278661 -0.0980181 
0.777786 0.369496 -0.0669361 0.504025 
0.989775 0.0893054 0.108856 -0.0228116 
0.691189 0.412468 -0.00768098 0.593354 
0.967124 0.0414643 0.0823908 0.236989 
0.922259 0.11811 0.211702 0.301116 
0.872998 0.106465 0.203002 0.430499 
1 0.000646178 0.000193913 0.000461524 
0.464545 0.197074 0.639242 0.580284 
0.80546 0.16019 0.208233 0.531236 
0.973067 0.0554567 0.156413 0.16 
0.782843 0.569013 0.251386 -0.0136258 
0.965025 0.190478 -0.155228 0.0913713 
0.422936 0.19358 0.881935 0.076436 
0.957666 0.197542 -0.209322 0.00606959 
0.933896 0.135683 0.0158348 0.330419 
0.218235 0.323535 0.831742 0.394847 
0.793171 0.0202972 0.543839 0.273327 
0.259029 0.245797 0.696789 0.622072 
0.947128 0.0660144 0.273627 0.154011 
0.00546526 0.840257 0.434097 0.324805 
0.302496 0.316712 0.294521 0.849381 
0.87328 0.360975 -0.0134517 0.326952 
0.895604 0.01201 0.325206 0.3033 
0.115508 0.577388 0.641376 0.491851 
0.648037 0.64423 0.40499 -0.0316051 
0.785501 0.377258 -0.0937449 0.481536 
0.928096 0.227855 -0.290094 0.0506556 
0.624247 0.389964 -0.170941 0.654999 
0.958363 0.114631 -0.0779737 0.24964 
0.794625 0.477791 -0.0109484 0.374388 
0.872998 0.106465 0.203002 0.430499 
1 0.000646178 0.000193913 0.000461524 
0.464545 0.197074 0.639242 0.580284 
0.80546 0.16019 0.208233 0.531236 
0.973067 0.0554567 0.156413 0.16 
0.87725 0.434091 0.204643 0.0108765 
0.987695 0.113077 0.0865597 0.064658 
0.422936 0.19358 0.881935 0.076436 
0.999938 0.00834925 0.00519597 0.00514693 
0.933896 0.135683 0.0158348 0.330419 
0.218235 0.323535 0.831742 0.394847 
0.81868 0.00599613 0.495507 0.290171 
0.259029 0.245797 0.696789 0.622072 
0.947128 0.0660144 0.273627 0.154011 
0.114949 0.809678 0.432343 0.379853 
0.241786 0.448885 0.409847 0.756351 
0.907485 0.19221 0.316201 0.198854 
0.895604 0.01201 0.325206 0.3033 
0.115508 0.577388 0.641376 0.491851 
0.824182 0.474245 0.308304 0.0276435 
0.824488 0.388943 0.180706 0.369174 
0.997984 0.0571643 0.0186911 0.0202818 
0.733928 0.293165 0.134605 0.597734 
0.94956 0.0531351 0.230499 0.205872 
0.894099 0.242412 0.307197 0.217838 
0.872998 0.106465 0.203002 0.430499 
1 0.000646178 0.000193913 0.000461524 
0.464545 0.197074 0.639242 0.580284 
0.80546 0.16019 0.208233 0.531236 
0.973067 0.0554567 0.156413 0.16 
0.841991 0.489532 0.226705 0.00376045 
0.987695 0.113077 0.0865597 0.064658 
0.422936 0.19358 0.881935 0.076436 
0.999938 0.00834925 0.00519597 0.00514693 
0.933896 0.135683 0.0158348 0.330419 
0.218235 0.323535 0.831742 0.394847 
0.822268 0.00687642 0.488428 0.292003 
0.259029 0.245797 0.696789 0.622072 
0.947128 0.0660144 0.273627 0.154011 
0.114949 0.809678 0.432343 0.379853 
0.241786 0.448885 0.409847 0.756351 
0.907485 0.19221 0.316201 0.198854 
0.895604 0.01201 0.325206 0.3033 
0.115508 0.577388 0.641376 0.491851 
0.835101 0.483927 0.255872 0.054317 
0.824488 0.388943 0.180706 0.369174 
0.997984 0.0571643 0.0186911 0.0202818 
0.733928 0.293165 0.134605 0.597734 
0.94956 0.0531351 0.230499 0.205872 
0.894099 0.242412 0.307197 0.217838 
0.872998 0.106465 0.203002 0.430499 
1 0.000646178 0.000193913 0.000461524 
0.464545 0.197074 0.639242 0.580284 
0.80546 0.16019 0.208233 0.531236 
0.973067 0.0554567 0.156413 0.16 
0.85666 0.475253 0.200024 0.0160836 
VECTORS vel double
-0.0100441 0.0164396 -0.00650249 
0 0 0.00110048 
-0.0113179 0.00262724 0.00180457 
0 0 0.000540492 
0 0 0.000361866 
-0.0746676 0.0403898 0.0270009 
0 0 -0.000383589 
0 0 0.000261626 
0.0157142 -0.00134142 -0.00594053 
0.0628791 0.0100757 0.0295223 
-0.00077148 -0.000870003 -0.000281836 
0 0 -6.249e-05 
0 0 -0.000521149 
0.190125 -0.145272 -0.00877105 
0.0239614 0.00494263 0.00100314 
-0.0143581 -0.0011737 -0.00903985 
-0.00245029 0.0195881 0.0069998 
0.0154385 -0.0319502 0.00560506 
0.00209188 0.0277804 0.0153577 
0 0 0.000953299 
0 0 0.000143927 
0 0 -0.000106932 
0 0 -0.00011255 
0 0 -0.000616314 
-0.133707 0.236572 -0.147717 
-0.0286357 0.0103036 -0.0105202 
0 0 0.0295911 
-0.0483032 -0.00421136 -0.000883912 
0 0 0.0292343 
0 0 0.033012 
-0.318301 0.046873 -0.0536592 
0 0 0.0247368 
0 0 0.0266178 
-0.17914 -0.0456842 -0.115014 
0.284855 0.0412272 -0.301808 
-0.0363047 -0.0578062 0.00105206 
0 0 0.0230682 
0 0 0.0230665 
0.00247404 0.00555922 -0.340823 
0.0898549 -0.01792 -0.0252794 
-0.0426771 -0.00329799 -0.0121364 
-0.0323127 0.0235419 -0.0064155 
-0.00203075 -0.0710219 -0.0139594 
0.0280442 -0.0966487 -0.101809 
0 0 0.035489 
0 0 0.0269049 
0 0 0.0351061 
0 0 0.0255406 
0 0 0.0379758 
-0.051721 -0.00464664 -0.131682 
-0.0150978 -0.00907969 -0.00485005 
0 0 0.0474434 
-0.0391723 0.0145921 0.0217717 
0 0 0.0523114 
0 0 0.0543184 
0.0205118 -0.0102679 -0.670439 
0 0 0.0474673 
0 0 0.0492049 
-0.0203226 0.001051 -0.254904 
0.0105017 0.126519 -0.0978262 
0.00127533 -0.0316375 -0.0180257 
0 0 0.0449602 
0 0 0.047345 
-0.0197971 0.034306 -0.326894 
0.140941 -0.0598762 -0.0433343 
-0.0547722 0.00847415 -0.00512778 
-0.0106228 0.0303093 0.023519 
0.0109126 -0.00150815 -0.00411719 
0.077165 -0.292645 -0.146006 
0 0 0.0553829 
0 0 0.0497272 
0 0 0.0616135 
0 0 0.0503669 
0 0 0.0687698 
0.040429 -0.106086 -0.488259 
0.0545916 0.0069779 0.0134266 
0 0 0.0687206 
0.0682669 0.0942986 0.0359413 
0 0 0.071467 
0 0 0.0740136 
0.108783 -0.0270385 -0.9131 
0 0 0.0665519 
0 0 0.0680576 
0.0771126 0.026461 -0.324188 
-0.00684067 0.0261126 -0.155779 
0.161884 0.117771 -0.0172875 
0 0 0.0633715 
0 0 0.0622349 
-0.03586 -0.0153446 -0.673657 
0.146334 0.0289026 -0.0792534 
0.0727183 0.125547 -0.0123555 
0.00153087 0.0799945 0.00294474 
0.0949307 0.0683021 0.0422574 
0.161178 0.170071 -0.11767 
0 0 0.0788156 
0 0 0.0688189 
0 0 0.0834757 
0 0 0.0656484 
0 0 0.0899169 
0.00059172 0.0340038 -0.609343 
-0.1075 -0.0138879 -0.116038 
0 0 0.0834426 
-0.0556296 -0.0156557 -0.00803312 
0 0 0.0865076 
0 0 0.0895577 
-0.0170782 0.00568235 -1.31718 
0 0 0.0815798 
0 0 0.0828878 
-0.00912337 -0.041676 -0.335676 
0.0126976 -0.0433471 -0.329474 
-0.135341 -0.0477288 -0.109444 
0 0 0.0778098 
0 0 0.0791229 
-0.0120278 0.0258902 -1.10122 
-0.140574 0.00123888 -0.303419 
-0.0556946 -0.0644367 0.0527363 
-0.0587507 -0.125373 0.00371364 
-0.189212 -0.022385 -0.00168191 
-0.110228 -0.011852 -0.0513891 
0 0 0.0951312 
0 0 0.0838609 
0 0 0.100634 
0 0 0.0828397 
0 0 0.105807 
-0.0262604 -0.00541776 -0.629737 
0 0 -2.78505 
0 0 0.0897656 
0 0 -2.78505 
0 0 0.0930621 
0 0 0.096399 
0.00121938 -0.00710602 -1.26427 
0 0 0.0880931 
0 0 0.0893538 
0 0 -2.78505 
0 0 -2.78505 
0 0 -2.78505 
0 0 0.0839955 
0 0 0.0856921 
0.00291726 -0.0204421 -1.22807 
0 0 -2.78505 
0 0 -2.78505 
0 0 -2.78505 
0 0 -2.78505 
0 0 -2.78505 
0 0 0.102395 
0 0 0.0904341 
0 0 0.108286 
0 0 0.089509 
0 0 0.11741 
0.0208005 0.00258184 -0.664943 
0 0 -2.29455 
0 0 -2.29455 
0 0 -2.29455 
0 0 -2.29455 
0 0 -2.29455 
0 0 -2.29455 
0 0 -2.29455 
0 0 -2.29455 
0 0 -2.29455 
0 0 -2.29455 
0 0 -2.29455 
0 0 -2.29455 
0 0 -2.29455 
0 0 -2.29455 
0 0 -2.29455 
0 0 -2.29455 
0 0 -2.29455 
0 0 -2.29455 
0 0 -2.29455 
0 0 -2.29455 
0 0 -2.29455 
0 0 -2.29455 
0 0 -2.29455 
0 0 -2.29455 
0 0 -2.29455 
VECTORS spin double
-0.53007 -0.36836 0.177519 
0 0 0 
-0.0545002 -0.279322 0.00377715 
0 0 0 
0 0 0 
-0.928768 -2.23761 0.77484 
0 0 0 
0 0 0 
-0.000251043 0.424809 -0.10463 
-0.229382 1.74281 -0.123864 
0.0163125 -0.0167139 0.0029098 
0 0 0 
0 0 0 
2.97932 3.89056 0.144907 
-0.122942 0.633818 0.14127 
0.0163532 -0.3956 -0.0140711 
-0.621643 -0.123195 0.237435 
1.09534 0.186921 -0.459526 
-0.995843 -0.318673 0.872576 
0 0 0 
0 0 0 
0 0 0 
0 0 0 
0 0 0 
-4.62309 -2.9753 -0.606535 
0.874931 -0.0955391 0.080023 
0 0 0 
0.271557 -0.784129 0.0144791 
0 0 0 
0 0 0 
1.44005 -0.397836 1.0667 
0 0 0 
0 0 0 
0.942086 -4.90995 0.365456 
-5.29115 5.22808 -2.78061 
1.17444 -0.731173 -0.994575 
0 0 0 
0 0 0 
-6.28351 -7.53765 0.245213 
0.556276 0.843318 -0.134041 
0.0439282 -0.378211 -0.0577993 
0.726828 -0.79049 0.506866 
0.150679 -0.528115 -1.31992 
3.80249 2.11299 -1.87188 
0 0 0 
0 0 0 
0 0 0 
0 0 0 
0 0 0 
8.02665 3.97359 0.0593719 
-0.504562 0.516246 0.160375 
0 0 0 
-0.871364 1.09168 0.898378 
0 0 0 
0 0 0 
2.07007 6.25438 0.575335 
0 0 0 
0 0 0 
-0.448209 9.88612 -0.443996 
3.23952 -9.17616 -0.178987 
-1.3485 1.38183 -0.00323447 
0 0 0 
0 0 0 
4.38902 5.18691 -1.64562 
0.299613 0.249799 -0.335944 
-0.0938878 0.1695 -0.461338 
-1.14228 1.57222 0.651498 
-0.712734 0.0740168 -2.79528 
-0.12528 -1.13885 0.871733 
0 0 0 
0 0 0 
0 0 0 
0 0 0 
0 0 0 
-5.30939 -1.63055 1.16624 
0.0827552 1.39127 0.35013 
0 0 0 
-1.3993 1.93207 1.00275 
0 0 0 
0 0 0 
-1.13979 -5.78733 1.06587 
0 0 0 
0 0 0 
-0.245711 -4.17603 -1.52419 
-0.826214 7.74711 1.56222 
-2.27495 1.68618 1.52055 
0 0 0 
0 0 0 
-5.54933 -5.49465 0.801 
-3.41168 -0.111665 0.281471 
-3.49923 3.2772 -0.896467 
0.275794 -1.37216 -2.17548 
-2.92016 0.93674 0.226678 
-9.56107 3.20478 0.988253 
0 0 0 
0 0 0 
0 0 0 
0 0 0 
0 0 0 
2.86179 0.761742 -0.160821 
1.32384 -7.65214 -0.830791 
0 0 0 
5.4384 -6.46618 -0.227099 
0 0 0 
0 0 0 
1.36212 -1.95913 -0.127864 
0 0 0 
0 0 0 
2.1969 3.49715 0.822758 
2.75156 -7.00414 -0.587391 
6.10824 -8.21162 -0.141579 
0 0 0 
0 0 0 
2.03584 -4.78191 -0.284622 
5.52768 -7.30558 0.860584 
9.24453 -6.84093 2.4971 
5.93473 1.12995 3.31709 
5.62828 -9.20622 0.891323 
9.5763 -7.14812 0.605624 
0 0 0 
0 0 0 
0 0 0 
0 0 0 
0 0 0 
-1.74071 -1.0643 0.0326003 
0 0 0 
0 0 0 
0 0 0 
0 0 0 
0 0 0 
-1.22606 2.40034 0.0349209 
0 0 0 
0 0 0 
0 0 0 
0 0 0 
0 0 0 
0 0 0 
0 0 0 
-1.21026 5.72625 0.577281 
0 0 0 
0 0 0 
0 0 0 
0 0 0 
0 0 0 
0 0 0 
0 0 0 
0 0 0 
0 0 0 
0 0 0 
1.32916 1.72943 -0.127562 
0 0 0 
0 0 0 
0 0 0 
0 0 0 
0 0 0 
0 0 0 
0 0 0 
0 0 0 
0 0 0 
0 0 0 
0 0 0 
0 0 0 
0 0 0 
0 0 0 
0 0 0 
0 0 0 
0 0 0 
0 0 0 
0 0 0 
0 0 0 
0 0 0 
0 0 0 
0 0 0 
0 0 0 
0 0 0 
VECTORS force double
-4.71323 -0.539471 -1.11423 
0 0 -8.11037 
-2.1625 0.0135472 1.85582 
0 0 -8.30283 
0 0 -7.39146 
1.86822 -1.14813 -0.948961 
0 0 -5.57861 
0 0 -6.71449 
1.15969 -0.662772 -0.919804 
-2.80468 -0.499885 -2.1519 
-0.325015 -0.115728 -0.192159 
0 0 -5.32959 
0 0 -4.78032 
0.126976 -0.214754 -3.1663 
3.30112 -0.1343 3.14764 
0.279468 -0.923822 -1.43256 
-1.17297 0.230825 0.433668 
-3.49589 2.88432 12.5939 
-0.123255 -0.811579 -1.98546 
0 0 -9.09226 
0 0 -6.71641 
0 0 -7.79865 
0 0 -5.62328 
0 0 -6.2691 
-0.313014 3.17365 -5.59081 
-1.86835 -2.40888 4.12823 
0 0 -13.6117 
-4.98227 -1.5621 0.767995 
0 0 -13.6117 
0 0 -13.6117 
0 0 -13.6117 
0 0 -13.6117 
0 0 -13.6117 
-1.63849 -1.34119 -6.2821 
0 0 -13.6117 
-2.47088 -1.54968 -0.213166 
0 0 -13.6117 
0 0 -13.6117 
0 0 -13.6117 
4.02786 -4.46485 1.07508 
-0.521292 -1.12349 3.14161 
0.437147 0.485461 -0.251192 
-6.28723 -0.291952 20.2594 
-0.197621 -1.98113 -10.4824 
0 0 -13.6117 
0 0 -13.6117 
0 0 -13.6117 
0 0 -13.6117 
0 0 -13.6117 
0 0 -13.6117 
2.26508 -2.35019 2.41618 
0 0 -13.6117 
-0.0808505 4.62414 4.02488 
0 0 -13.6117 
0 0 -13.6117 
0 0 -13.6117 
0 0 -13.6117 
0 0 -13.6117 
0 0 -13.6117 
0 0 -13.6117 
0.512992 0.634585 -1.7875 
0 0 -13.6117 
0 0 -13.6117 
0 0 -13.6117 
-2.02135 -75.6882 -59.7982 
-0.626342 0.873945 0.748679 
0.831243 1.80927 1.19742 
0.0683186 0.865941 0.365202 
-0.341703 0.0920858 -14.3559 
0 0 -13.6117 
0 0 -13.6117 
0 0 -13.6117 
0 0 -13.6117 
0 0 -13.6117 
0 0 -13.6117 
-3.57672 0.213123 -1.08034 
0 0 -13.6117 
2.43397 -0.345153 1.21431 
0 0 -13.6117 
0 0 -13.6117 
0 0 -13.6117 
0 0 -13.6117 
0 0 -13.6117 
-0.323059 -0.0470434 -11.4921 
0 0 -13.6117 
-0.521122 0.01508 -8.91482 
0 0 -13.6117 
0 0 -13.6117 
0 0 -13.6117 
3.33135 75.9401 39.52 
-3.1361 1.79749 1.37378 
-1.49804 -1.14101 1.08972 
-3.95517 3.37399 0.535991 
0 0 -13.6117 
0 0 -13.6117 
0 0 -13.6117 
0 0 -13.6117 
0 0 -13.6117 
0 0 -13.6117 
0 0 -13.6117 
0 0 -13.6117 
0 0 -13.6117 
-2.76104 -1.17245 -5.02937 
0 0 -13.6117 
0 0 -13.6117 
0 0 -13.6117 
0 0 -13.6117 
0 0 -13.6117 
0.323059 0.0470434 -15.7313 
0 0 -13.6117 
0 0 -13.6117 
0 0 -13.6117 
0 0 -13.6117 
0 0 -13.6117 
0 0 -13.6117 
0.769702 -0.903617 -6.81521 
0.274221 -0.511266 -3.08037 
-1.95045 -2.48328 -10.0174 
0 0 -13.6117 
0 0 -13.6117 
0 0 -13.6117 
0 0 -13.6117 
0 0 -13.6117 
0 0 -13.6117 
0 0 -13.6117 
0 0 -13.6117 
0 0 -13.6117 
0 0 -13.6117 
0 0 -13.6117 
0 0 -13.6117 
0 0 -13.6117 
0 0 -13.6117 
0 0 -13.6117 
0 0 -13.6117 
0 0 -13.6117 
0 0 -13.6117 
0 0 -13.6117 
0 0 -13.6117 
0 0 -13.6117 
0 0 -13.6117 
0 0 -13.6117 
0 0 -13.6117 
0 0 -13.6117 
0 0 -13.6117 
0 0 -13.6117 
0 0 -13.6117 
0 0 -13.6117 
0 0 -13.6117 
0 0 -13.6117 
0 0 -13.6117 
0 0 -13.6117 
0 0 -13.6117 
0 0 -13.6117 
0 0 -13.6117 
0 0 -13.6117 
0 0 -13.6117 
0 0 -13.6117 
0 0 -13.6117 
0 0 -13.6117 
0 0 -13.6117 
0 0 -13.6117 
0 0 -13.6117 
0 0 -13.6117 
0 0 -13.6117 
0 0 -13.6117 
0 0 -13.6117 
0 0 -13.6117 
0 0 -13.6117 
0 0 -13.6117 
0 0 -13.6117 
0 0 -13.6117 
0 0 -13.6117 
0 0 -13.6117 
0 0 -13.6117 
0 0 -13.6117 
VECTORS moment double
-0.0132586 -0.242293 0.0359597 
0 0 0 
-0.181702 -0.160502 -0.0192803 
0 0 0 
0 0 0 
0.0226007 0.0508457 -0.0285731 
0 0 0 
0 0 0 
0.00625702 0.0236638 -0.0265731 
-0.0246404 -0.0916411 -0.0100279 
0.00446146 -0.0088621 0.00160427 
0 0 0 
0 0 0 
0.0124034 -0.000520077 -0.00016147 
-0.0391501 0.00453184 0.0315235 
-0.0964065 -0.374358 -0.0147089 
-0.0576108 -0.0407212 0.0141345 
0.00445527 0.0134501 0.071177 
0.030219 -0.0218071 0.0237863 
0 0 0 
0 0 0 
0 0 0 
0 0 0 
0 0 0 
-0.0618328 -0.0331638 0.0107089 
0.0982433 0.119437 0.00672129 
0 0 0 
0.157139 0.0038761 0.00803302 
0 0 0 
0 0 0 
0 0 0 
0 0 0 
0 0 0 
0.0368452 -0.0992559 -0.00992557 
0 0 0 
0.0330729 -0.0386276 -0.028598 
0 0 0 
0 0 0 
0 0 0 
0.15559 -0.0115352 -0.0413685 
0.16539 0.129721 -0.00490879 
0.0652325 0.0268812 -0.00722583 
0.482542 0.162561 0.0464693 
-0.0086828 0.0207768 0.0152338 
0 0 0 
0 0 0 
0 0 0 
0 0 0 
0 0 0 
0 0 0 
-0.131823 -0.0323285 -0.0645955 
0 0 0 
-0.0625324 0.200272 0.0154366 
0 0 0 
0 0 0 
0 0 0 
0 0 0 
0 0 0 
0 0 0 
0 0 0 
-0.105178 0.108386 -0.0118555 
0 0 0 
0 0 0 
0 0 0 
2.47988 0.744553 -1.14761 
-0.0629703 -0.0731123 0.00336881 
-0.0536506 -0.027466 0.00503242 
-0.459854 -0.021909 -0.110545 
-0.000573431 0.00661902 0.00108242 
0 0 0 
0 0 0 
0 0 0 
0 0 0 
0 0 0 
0 0 0 
0.102126 -0.172027 0.0320746 
0 0 0 
0.0655514 -0.0657678 0.0207753 
0 0 0 
0 0 0 
0 0 0 
0 0 0 
0 0 0 
0.00690101 -0.00558374 0.000927891 
0 0 0 
0.0478943 -0.0453067 0.00545933 
0 0 0 
0 0 0 
0 0 0 
3.28279 -1.87047 2.46759 
0.00606034 -0.0431748 -0.0141577 
0.2739 -0.0706379 0.00229595 
0.15021 -0.0521311 0.0702892 
0 0 0 
0 0 0 
0 0 0 
0 0 0 
0 0 0 
0 0 0 
0 0 0 
0 0 0 
0 0 0 
-0.0690859 0.0298052 -0.0181539 
0 0 0 
0 0 0 
0 0 0 
0 0 0 
0 0 0 
-0.0025875 -0.00358052 -0.000473842 
0 0 0 
0 0 0 
0 0 0 
0 0 0 
0 0 0 
0 0 0 
0.0631858 0.110381 0.00751963 
-0.095857 0.128668 0.00874243 
-0.0618184 0.0753247 0.0184955 
0 0 0 
0 0 0 
0 0 0 
0 0 0 
0 0 0 
0 0 0 
0 0 0 
0 0 0 
0 0 0 
0 0 0 
0 0 0 
0 0 0 
0 0 0 
0 0 0 
0 0 0 
0 0 0 
0 0 0 
0 0 0 
0 0 0 
0 0 0 
0 0 0 
0 0 0 
0 0 0 
0 0 0 
0 0 0 
0 0 0 
0 0 0 
0 0 0 
0 0 0 
0 0 0 
0 0 0 
0 0 0 
0 0 0 
0 0 0 
0 0 0 
0 0 0 
0 0 0 
0 0 0 
0 0 0 
0 0 0 
0 0 0 
0 0 0 
0 0 0 
0 0 0 
0 0 0 
0 0 0 
0 0 0 
0 0 0 
0 0 0 
0 0 0 
0 0 0 
0 0 0 
0 0 0 
0 0 0 
0 0 0 
0 0 0 
0 0 0 
SCALARS shape_id int 1
LOOKUP_TABLE default
0
1
0
1
1
0
1
1
0
0
0
1
1
0
0
0
0
0
0
1
1
1
1
1
0
0
1
0
1
1
0
1
1
0
0
0
1
1
0
0
0
0
0
0
1
1
1
1
1
0
0
1
0
1
1
0
1
1
0
0
0
1
1
0
0
0
0
0
0
1
1
1
1
1
0
0
1
0
1
1
0
1
1
0
0
0
1
1
0
0
0
0
0
0
1
1
1
1
1
0
0
1
0
1
1
0
1
1
0
0
0
1
1
0
0
0
0
0
0
1
1
1
1
1
0
0
1
0
1
1
0
1
1
0
0
0
1
1
0
0
0
0
0
0
1
1
1
1
1
0
0
1
0
1
1
0
1
1
0
0
0
1
1
0
0
0
0
0
0
1
1
1
1
1
0
SCALARS size double 1
LOOKUP_TABLE default
0.1
0.1
0.1
0.1
0.1
0.1
0.1
0.1
0.1
0.1
0.1
0.1
0.1
0.1
0.1
0.1
0.1
0.1
0.1
0.1
0.1
0.1
0.1
0.1
0.1
0.1
0.1
0.1
0.1
0.1
0.1
0.1
0.1
0.1
0.1
0.1
0.1
0.1
0.1
0.1
0.1
0.1
0.1
0.1
0.1
0.1
0.1
0.1
0.1
0.1
0.1
0.1
0.1
0.1
0.1
0.1
0.1
0.1
0.1
0.1
0.1
0.1
0.1
0.1
0.1
0.1
0.1
0.1
0.1
0.1
0.1
0.1
0.1
0.1
0.1
0.1
0.1
0.1
0.1
0.1
0.1
0.1
0.1
0.1
0.1
0.1
0.1
0.1
0.1
0.1
0.1
0.1
0.1
0.1
0.1
0.1
0.1
0.1
0.1
0.1
0.1
0.1
0.1
0.1
0.1
0.1
0.1
0.1
0.1
0.1
0.1
0.1
0.1
0.1
0.1
0.1
0.1
0.1
0.1
0.1
0.1
0.1
0.1
0.1
0.1
0.1
0.1
0.1
0.1
0.1
0.1
0.1
0.1
0.1
0.1
0.1
0.1
0.1
0.1
0.1
0.1
0.1
0.1
0.1
0.1
0.1
0.1
0.1
0.1
0.1
0.1
0.1
0.1
0.1
0.1
0.1
0.1
0.1
0.1
0.1
0.1
0.1
0.1
0.1
0.1
0.1
0.1
0.1
0.1
0.1
0.1
0.1
0.1
0.1
0.1
SCALARS mass double 1
LOOKUP_TABLE default
1.38754
1.38754
1.38754
1.38754
1.38754
1.38754
1.38754
1.38754
1.38754
1.38754
1.38754
1.38754
1.38754
1.38754
1.38754
1.38754
1.38754
1.38754
1.38754
1.38754
1.38754
1.38754
1.38754
1.38754
1.38754
1.38754
1.38754
1.38754
1.38754
1.38754
1.38754
1.38754
1.38754
1.38754
1.38754
1.38754
1.38754
1.38754
1.38754
1.38754
1.38754
1.38754
1.38754
1.38754
1.38754
1.38754
1.38754
1.38754
1.38754
1.38754
1.38754
1.38754
1.38754
1.38754
1.38754
1.38754
1.38754
1.38754
1.38754
1.38754
1.38754
1.38754
1.38754
1.38754
1.38754
1.38754
1.38754
1.38754
1.38754
1.38754
1.38754
1.38754
1.38754
1.38754
1.38754
1.38754
1.38754
1.38754
1.38754
1.38754
1.38754
1.38754
1.38754
1.38754
1.38754
1.38754
1.38754
1.38754
1.38754
1.38754
1.38754
1.38754
1.38754
1.38754
1.38754
1.38754
1.38754
1.38754
1.38754
1.38754
1.38754
1.38754
1.38754
1.38754
1.38754
1.38754
1.38754
1.38754
1.38754
1.38754
1.38754
1.38754
1.38754
1.38754
1.38754
1.38754
1.38754
1.38754
1.38754
1.38754
1.38754
1.38754
1.38754
1.38754
1.38754
1.38754
1.38754
1.38754
1.38754
1.38754
1.38754
1.38754
1.38754
1.38754
1.38754
1.38754
1.38754
1.38754
1.38754
1.38754
1.38754
1.38754
1.38754
1.38754
1.38754
1.38754
1.38754
1.38754
1.38754
1.38754
1.38754
1.38754
1.38754
1.38754
1.38754
1.38754
1.38754
1.38754
1.38754
1.38754
1.38754
1.38754
1.38754
1.38754
1.38754
1.38754
1.38754
1.38754
1.38754
1.38754
1.38754
1.38754
1.38754
1.38754
1.38754
VECTORS moi double
0.00116818 0.00159003 0.00189584 
0.00138754 0.00138754 0.00138754 
0.00116818 0.00159003 0.00189584 
0.00138754 0.00138754 0.00138754 
0.00138754 0.00138754 0.00138754 
0.00116818 0.00159003 0.00189584 
0.00138754 0.00138754 0.00138754 
0.00138754 0.00138754 0.00138754 
0.00116818 0.00159003 0.00189584 
0.00116818 0.00159003 0.00189584 