# vtk DataFile Version 2.0
Generated by NetDEM
ASCII 
DATASET POLYDATA
POINTS 500 double
-0.421554 -0.394284 -0.462501 
-0.450005 -0.189426 -0.450031 
-0.405147 -0.012043 -0.462901 
-0.449874 0.107345 -0.450026 
-0.450022 0.349745 -0.450029 
-0.292783 -0.437525 -0.459213 
-0.357125 -0.226558 -0.450014 
-0.188039 -0.00472879 -0.450041 
-0.173265 0.179291 -0.463959 
-0.256014 0.369849 -0.464549 
-0.0456818 -0.403165 -0.464218 
-0.152251 -0.130224 -0.450024 
-0.0498949 -0.0917813 -0.450055 
0.0394481 0.180131 -0.453089 
-0.0267672 0.319997 -0.444029 
0.192004 -0.408257 -0.464102 
0.165924 -0.20846 -0.463311 
0.169152 -0.00820645 -0.464449 
0.161866 0.203394 -0.464256 
0.293607 0.407985 -0.420591 
0.448067 -0.412583 -0.450053 
0.43409 -0.291955 -0.450012 
0.343966 -0.0127976 -0.450058 
0.373719 0.0872866 -0.450032 
0.372764 0.441381 -0.464777 
-0.439429 -0.400794 -0.393667 
-0.449965 -0.27929 -0.406187 
-0.408444 -0.0113167 -0.39129 
-0.439898 0.178706 -0.380697 
-0.449127 0.450029 -0.449971 
-0.350147 -0.393332 -0.397943 
-0.271949 -0.0968104 -0.450009 
-0.165744 -0.103362 -0.228039 
-0.304695 0.165982 -0.465066 
-0.154431 0.406612 -0.452861 
-0.0994627 -0.362408 -0.408262 
0.295986 -0.251375 -0.152919 
-0.0527846 -0.0147689 -0.317216 
0.0329204 0.260607 -0.452609 
0.129977 0.303942 -0.445037 
0.194575 -0.423998 -0.39244 
0.167609 -0.212168 -0.391758 
0.177543 0.0275147 -0.389788 
0.194471 0.11292 -0.45586 
0.28728 0.364385 -0.330842 
0.373052 -0.450015 -0.395578 
0.436415 -0.353153 -0.370521 
0.271227 -0.21242 -0.450012 
0.45 0.152406 -0.450007 
0.425789 0.340843 -0.45655 
-0.437103 -0.440575 -0.330816 
-0.278139 -0.207774 -0.391641 
-0.298082 -0.00120196 -0.438729 
-0.285966 0.276792 -0.450015 
-0.449634 0.27975 -0.378488 
-0.199205 -0.37869 -0.453174 
0.196094 -0.354024 -0.310659 
-0.246329 -0.0445544 -0.217081 
-0.170428 0.0805485 -0.451636 
-0.348115 0.333662 -0.345447 
0.0501131 -0.439259 -0.450961 
0.206489 -0.275365 -0.197824 
0.202769 0.0538125 -0.226775 
-0.0372177 0.226011 -0.396416 
0.253704 0.333737 -0.463363 
0.182322 -0.450026 -0.32392 
0.0563693 -0.100507 -0.451827 
0.158873 0.0690098 -0.331125 
0.267756 0.0670053 -0.44251 
0.114849 0.132445 -0.391667 
0.287247 -0.45 -0.450007 
0.372299 -0.208899 -0.450063 
0.375672 -0.108982 -0.450082 
0.449454 0.216435 -0.369926 
0.436049 0.254231 -0.460589 
-0.429202 -0.452762 -0.246105 
-0.197592 -0.155125 -0.364482 
-0.241757 0.00487837 -0.356992 
-0.263886 0.0934851 -0.410453 
-0.344859 0.1432 -0.371764 
-0.169156 -0.447498 -0.413695 
-0.122554 -0.0539337 -0.392574 
-0.22157 0.0488677 -0.246959 
-0.0562704 0.131489 -0.449276 
-0.366194 0.380853 -0.415326 
0.0736877 -0.460026 -0.352035 
0.445334 -0.346126 -0.110545 
-0.19897 -0.225746 -0.450022 
0.013831 0.0472831 -0.450784 
0.0714123 0.397346 -0.415277 
0.253734 -0.443751 -0.25539 
0.147279 -0.327312 -0.401564 
0.112065 0.0766225 -0.274286 
0.266741 0.171098 -0.434931 
0.139881 0.449973 -0.45002 
0.34987 -0.310213 -0.399301 
0.449939 -0.105245 -0.383227 
0.385337 0.140941 -0.356196 
0.331016 0.315227 -0.409739 
0.437915 0.37032 -0.378209 
-0.381583 -0.439221 -0.17552 
-0.364102 -0.348747 -0.145806 
-0.295901 -0.0426861 -0.297157 
-0.3566 0.0723514 -0.441362 
-0.450009 0.437663 -0.350754 
-0.292184 -0.429835 -0.358097 
-0.0764789 -0.141934 -0.367744 
-0.2416 0.0337001 -0.150177 
3.54156e-05 -0.027863 -0.388044 
-0.432231 0.25204 -0.458587 
0.0772764 -0.351208 -0.44203 
0.35696 -0.200675 -0.0919799 
0.0573412 -0.122008 -0.363388 
0.0303081 0.0438373 -0.360948 
-0.00431676 0.43107 -0.462322 
0.294412 -0.387894 -0.232772 
0.255477 -0.311629 -0.446424 
0.029132 0.0686401 -0.270442 
0.255722 0.247181 -0.38862 
0.343211 0.450014 -0.2815 
0.29675 -0.39162 -0.36788 
0.450054 -0.214642 -0.387483 
0.449581 -0.03092 -0.450037 
0.349313 0.215991 -0.41161 
0.402166 0.451962 -0.375994 
-0.461308 -0.451467 -0.138326 
-0.320547 -0.140654 -0.330793 
-0.451046 -0.0272535 -0.322807 
-0.253875 0.198656 -0.396341 
-0.302232 0.45 -0.389593 
-0.170238 -0.387336 -0.350717 
-0.0796365 -0.198973 -0.450013 
-0.205938 -0.166694 -0.161936 
-0.136947 0.15126 -0.402263 
-0.225737 0.3419 -0.395311 
-0.0454207 -0.282619 -0.451014 
0.272906 -0.32433 -0.0871936 
0.450002 0.0525564 -0.179522 
0.0309343 0.12792 -0.337998 
-0.118049 0.312985 -0.41558 
0.132784 -0.450162 -0.26155 
0.240138 -0.142301 -0.404985 
0.0898023 -0.029675 -0.246202 
0.195562 0.30632 -0.345168 
0.198296 0.387273 -0.398528 
0.450006 -0.44441 -0.331976 
0.327062 -0.169996 -0.369798 
0.254893 -0.058272 -0.450043 
0.450019 0.0550433 -0.394036 
0.440567 0.410536 -0.302111 
-0.431813 -0.458427 -0.0277337 
-0.239216 -0.177015 -0.276188 
-0.423428 -0.104087 -0.411849 
-0.208695 0.269737 -0.342454 
-0.358919 0.240037 -0.392355 
-0.170155 -0.289152 -0.370535 
0.142288 -0.450007 -0.121509 
-0.302667 0.36954 -0.201595 
-0.106905 0.274892 -0.334616 
-0.223896 0.462929 -0.451352 
0.00551931 -0.314659 -0.360746 
0.112499 -0.244082 -0.1698 
-0.18856 -0.0668917 -0.318311 
0.0133665 0.203582 -0.308607 
0.020654 0.299415 -0.355949 
0.0478556 -0.417046 -0.279129 
0.14393 -0.102887 -0.404357 
0.252544 -0.114723 -0.270147 
0.247109 0.189462 -0.320769 
0.137288 0.449987 -0.350044 
0.384035 -0.230367 -0.314086 
0.351012 -0.0637819 -0.364343 
0.321421 0.0482956 -0.374275 
0.418772 0.297615 -0.311551 
0.446642 0.380905 -0.218049 
-0.299518 -0.435367 -0.12952 
-0.449877 -0.103042 -0.272535 
-0.358949 0.00940969 -0.284797 
-0.450002 0.0733729 -0.355978 
-0.414604 0.264897 -0.286051 
-0.282332 -0.299763 -0.448559 
-0.184685 -0.266431 -0.256688 
-0.142433 0.397194 -0.0954758 
-0.122073 0.189337 -0.33751 
-0.13106 0.440683 -0.360251 
-0.0066706 -0.420706 -0.367382 
0.0166579 -0.087751 -0.278724 
0.0503124 -0.205879 -0.450007 
-0.0219403 0.274439 -0.261445 
-0.000394173 0.400559 -0.372299 
0.0603254 -0.440687 -0.178827 
0.105838 -0.041957 -0.352174 
0.284876 -0.158905 -0.200288 
0.198777 0.13676 -0.279349 
0.243669 0.449999 -0.301636 
0.449973 -0.305176 -0.283873 
0.450052 -0.153736 -0.295846 
0.365509 0.0382679 -0.285055 
0.326313 0.261821 -0.324516 
0.38344 0.429593 -0.208018 
-0.250657 -0.445671 -0.201052 
-0.432076 0.22161 -0.197614 
-0.290178 0.185626 -0.206056 
-0.150047 0.0580381 -0.351886 
-0.360354 0.449983 -0.308236 
-0.221529 -0.342175 -0.276125 
-0.0346935 -0.231436 -0.352201 
0.0190235 -0.262951 -0.273965 
-0.102469 0.108204 -0.256161 
-0.15926 0.348226 -0.332748 
-0.0481363 -0.378745 -0.305183 
-0.208098 -0.090016 0.0905094 
-0.0369746 0.208906 -0.180092 
-0.0603691 0.0974004 -0.342139 
0.109658 0.35028 -0.34038 
0.235535 -0.425621 -0.16108 
0.220039 -0.199962 -0.317248 
0.289293 -0.101124 -0.140772 
0.154482 0.22057 -0.304452 
0.188995 0.361359 -0.272547 
0.402055 -0.394629 -0.259731 
0.440167 -0.224248 -0.225667 
0.44767 -0.0211397 -0.329276 
0.299705 0.113727 -0.301886 
0.413531 0.40171 -0.132895 
-0.256088 -0.33615 -0.188046 
-0.426784 -0.322701 -0.319144 
-0.441177 0.346044 -0.136585 
-0.345246 0.326526 -0.0772034 
-0.448831 0.40893 -0.0388245 
-0.141653 -0.41945 -0.28221 
-0.0498126 0.139893 -0.0930385 
-0.256985 -0.171502 -0.0761055 
-0.179367 0.173105 -0.212293 
-0.158898 0.341198 -0.227241 
-0.0719737 -0.386297 -0.222702 
-0.141797 -0.140369 -0.0524534 
-0.12102 -0.0152917 -0.244129 
-0.0189636 0.108156 -0.210982 
0.0338659 0.44812 -0.289306 
0.293977 -0.332314 -0.184615 
0.255611 -0.304856 -0.358313 
0.3485 -0.0418646 -0.0963117 
0.142993 0.276675 -0.241965 
0.213017 0.380401 -0.173061 
0.355169 -0.450001 -0.190928 
0.450063 -0.203423 -0.128449 
0.344754 0.125688 -0.0351936 
0.446779 0.152002 -0.190041 
0.423247 0.367641 -0.0529614 
-0.325551 -0.326237 -0.318529 
-0.12807 -0.198625 -0.303543 
-0.329779 -0.0125251 -0.178052 
-0.223631 0.188548 -0.286014 
-0.421077 0.448791 -0.228799 
-0.254568 -0.434087 -0.293216 
0.119051 -0.343238 -0.247823 
-0.307954 0.252943 -0.150495 
-0.24486 0.298537 -0.222742 
-0.148349 0.442854 -0.259555 
-0.000205084 -0.375181 -0.190613 
0.450011 -0.392922 -0.022329 
0.0766031 0.449988 -0.193944 
-0.0746314 0.405596 -0.330423 
-0.0408326 0.448886 -0.233446 
0.357015 -0.385822 -0.116406 
0.371462 -0.0964241 -0.179426 
0.182356 -0.0225981 -0.294101 
0.214421 0.203412 -0.217227 
0.0959858 0.24522 -0.372477 
0.349942 -0.309368 -0.263062 
0.351327 -0.149835 -0.264579 
0.449991 0.0899127 -0.29946 
0.450005 0.211835 -0.270064 
0.403562 0.454384 -0.058694 
-0.342474 -0.394606 -0.0279302 
-0.150476 -0.343981 -0.203084 
-0.435126 -0.115461 -0.188336 
-0.450009 0.100122 -0.200073 
-0.336882 0.202226 -0.291445 
-0.151159 -0.445728 -0.199808 
-0.0842216 -0.287626 -0.28595 
-0.223654 0.447598 -0.327797 
-0.282127 0.310856 -0.292465 
-0.227819 0.435016 -0.202854 
0.05283 -0.403259 -0.101522 
-0.117532 0.450003 0.100286 
0.0365367 0.184335 -0.116902 
-0.0726024 0.311061 -0.217149 
0.010829 0.367405 -0.230954 
0.267705 -0.419514 -0.0629103 
0.0338511 -0.0955872 -0.0442916 
0.143423 -0.0430428 -0.167339 
0.285022 0.176879 -0.163317 
0.0500165 0.260399 -0.193637 
0.388841 -0.291861 -0.172673 
0.449083 -0.128318 -0.199071 
0.325074 -0.0517431 -0.268525 
0.449907 0.286566 -0.203583 
0.299513 0.415048 -0.117704 
-0.286466 -0.348262 -0.0847318 
-0.431514 0.00280615 -0.226608 
-0.393794 -0.274786 -0.115974 
-0.429293 0.143474 -0.28774 
-0.450011 0.450022 -0.129964 
-0.112209 -0.434639 -0.109069 
-0.123084 -0.330087 -0.107929 
-0.285689 0.0880022 -0.313024 
-0.13665 0.274418 -0.140029 
-0.24015 0.390111 -0.119315 
-0.0127012 -0.418867 -0.0297169 
-0.411466 -0.18172 -0.338716 
-0.00291618 -0.00163849 -0.2315 
-0.0394923 0.297227 -0.127018 
-0.00975269 0.443771 -0.146655 
0.144411 -0.374489 -0.0491581 
0.447 0.00467795 0.00030737 
0.0731331 -0.0261726 -0.105092 
0.304418 0.332486 -0.246786 
0.276615 0.449743 -0.206935 
0.372752 -0.449995 -0.0551591 
0.427902 -0.0512467 0.0671516 
0.239609 -0.0516508 -0.351453 
0.346976 0.258477 -0.212551 
0.440486 0.442421 0.029777 
-0.352226 -0.198225 -0.0711921 
-0.386702 -0.296624 -0.230267 
-0.404787 0.0957681 -0.126365 
-0.38217 0.308936 -0.20239 
-0.449929 0.358426 -0.289764 
-0.169229 -0.439613 0.0112683 
-0.0713958 -0.126599 -0.251616 
-0.222738 0.295842 -0.120474 
-0.103287 0.393531 -0.183664 
-0.0716874 0.434639 -0.0658295 
-0.0856158 -0.450616 -0.000109181 
0.0784529 -0.183569 -0.287464 
-0.0774807 0.0624598 -0.149935 
0.0384844 0.25252 -0.0629392 
0.0113176 0.420034 -0.0798078 
0.160012 -0.345913 -0.128446 
0.179099 -0.189789 -0.236772 
0.108439 0.164786 -0.238224 
0.309536 0.219375 -0.0805673 
0.16971 0.45 -0.230426 
0.449992 -0.421427 -0.176156 
0.319452 -0.257651 -0.0188813 
0.421303 -0.0268787 -0.233059 
0.364299 0.165908 -0.246155 
0.414273 0.266793 0.0670357 
-0.419653 -0.379288 0.0203623 
-0.450001 -0.223838 -0.256623 
-0.365374 0.213008 -0.100136 
-0.448706 0.0485265 -0.0391692 
-0.450023 0.181525 -0.107777 
-0.215498 -0.380327 -0.0385589 
-0.280353 -0.0977151 -0.139522 
-0.334686 -0.108141 -0.233319 
-0.188532 0.349426 -0.0321421 
-0.130799 0.401564 0.00293747 
0.0316504 -0.191782 -0.155019 
-0.152976 -0.251773 -0.162999 
0.219099 0.116352 -0.130643 
0.0875653 0.333437 -0.119109 
-0.019391 0.439927 0.0137842 
0.089423 -0.218801 -0.0652877 
0.458304 -0.0643884 -0.128671 
0.283168 0.0654964 -0.0604701 
0.175864 0.222933 -0.137124 
0.102049 0.330899 0.0198145 
0.39565 -0.0874281 -0.0403452 
0.44997 -0.26758 -0.0488361 
0.359543 0.0123013 -0.164884 
0.416221 0.111814 -0.103742 
0.321165 0.328471 -0.147066 
-0.422426 -0.194661 -0.167239 
-0.450004 -0.222426 -0.0704398 
-0.402129 -0.0152467 -0.13103 
-0.449751 0.275645 0.0224907 
-0.340639 0.450001 -0.155762 
-0.233752 -0.301084 0.0335605 
-0.268357 -0.264673 -0.0416406 
-0.329234 0.0667707 -0.0814997 
-0.122529 0.218088 -0.0708531 
-0.124011 0.186852 -0.00446418 
0.0253829 -0.309387 -0.0571245 
-0.115372 -0.103755 -0.141668 
0.107454 0.113908 -0.113512 
-0.159619 0.0992285 -0.14493 
0.0468721 0.399665 0.072586 
0.0358618 -0.290068 -0.163967 
0.281192 -0.0711855 -0.039063 
0.262862 0.0270214 -0.13044 
0.181446 0.287641 -0.0640769 
0.111023 0.349977 -0.203624 
0.324394 -0.346035 0.0275966 
0.256325 -0.180138 -0.0950217 
0.417426 0.194959 -0.0426433 
0.400085 0.243757 -0.128185 
0.43588 0.283709 -0.0408323 
-0.335751 -0.334057 0.051626 
-0.339084 -0.239694 -0.301328 
-0.451214 -0.0790472 -0.0713932 
-0.450002 0.114823 0.0621258 
-0.273247 0.369718 -0.0229262 
-0.0641957 -0.188955 -0.191138 
-0.176873 -0.232843 -0.0677652 
-0.262656 -0.0256049 -0.0724742 
-0.280429 0.224327 -0.0441037 
-0.209461 0.417588 0.0437972 
0.198473 -0.0653425 -0.112718 
-0.000778904 -0.0877317 -0.180265 
-0.134826 -0.0287042 0.061005 
-0.031943 0.247423 -0.0020018 
-0.0787959 0.341656 0.0496154 
0.313446 -0.441523 0.0409339 
0.330861 -0.221998 0.0672677 
0.172932 0.0351251 -0.141943 
0.263281 0.28236 -0.0323856 
0.23466 0.449999 -0.0562793 
0.449922 -0.1702 -0.0261427 
0.31805 0.354334 -0.0482863 
0.450001 0.0893624 -0.0123426 
0.436672 0.165975 0.0511082 
0.373329 0.357814 0.0533663 
-0.400628 -0.37512 0.111131 
-0.412342 -0.262064 0.0132817 
-0.192383 -0.0605172 -0.123784 
-0.450021 0.27945 -0.0774313 
-0.384336 0.351 0.0115445 
-0.206002 -0.391116 0.0614704 
-0.288407 -0.0516229 0.0209475 
-0.0434466 -0.024933 -0.115198 
-0.275303 0.131562 -0.132962 
-0.288146 0.391648 0.0921831 
0.186475 -0.453192 -0.0221449 
0.113347 -0.140227 -0.177227 
0.0258321 0.0574396 -0.132365 
-0.0851192 0.10804 0.0305481 
-0.0413443 0.401506 0.113383 
0.310924 -0.416816 0.138472 
0.199156 -0.12166 -0.0219167 
0.102403 0.194894 -0.0521307 
0.260336 0.171608 0.0994437 
0.14809 0.413844 -0.104754 
0.410998 -0.450009 0.0499044 
0.336885 -0.159582 -0.00304839 
-0.219006 0.0994434 -0.0734319 
0.344559 0.232936 0.0158363 
0.325445 0.442452 0.00441975 
-0.441541 -0.449983 0.112375 
-0.276996 0.0457232 0.00112644 
-0.384138 -0.0169858 -0.0231789 
-0.409653 0.142191 -0.0251847 
-0.45 0.413567 0.0610462 
-0.293619 -0.44559 0.0368699 
-0.236336 -0.155507 0.0204152 
-0.177746 0.0344963 -0.00351258 
-0.320115 0.12717 0.0089127 
-0.389809 0.401806 0.146657 
0.234347 -0.237859 0.082016 
-0.0460764 -0.143647 -0.0816345 
-0.0931424 0.0581917 -0.0512488 
0.0195607 0.342092 -0.0309913 
0.0116338 0.303684 0.0682017 
0.192636 -0.250011 -0.102197 
0.209755 -0.278322 -0.00835617 
0.179902 -0.00263625 -0.0477026 
0.188184 0.172695 -0.0392045 
0.089645 0.425191 -0.0193879 
0.419165 -0.349719 0.0624097 
0.449952 -0.148681 0.0714965 
0.342729 0.00619044 -0.010974 
0.267694 0.168149 0.0124132 
0.455928 0.351755 0.0804776 
-0.313844 -0.299177 0.117364 
-0.194883 -0.0663162 -0.0112517 
-0.428962 -0.0210946 0.0755104 
-0.365152 0.223055 0.0133418 
-0.355498 0.448475 -0.056886 
-0.167895 -0.238162 0.0265883 
-0.184784 -0.186326 0.104067 
-0.0894048 -0.0388889 -0.0274953 
-0.303836 0.295433 0.038746 
-0.206576 0.240745 0.0217558 
-0.0428117 -0.118365 0.0106051 
-0.0434663 -0.243059 -0.128063 
0.0139906 0.00772701 -0.0401408 
0.23286 -0.167607 0.026748 
0.0153633 0.44968 0.178731 
0.216605 -0.367723 0.0307879 
0.444195 -0.29116 0.124812 
0.300214 0.0635108 0.0519853 
0.184567 0.250285 0.0393826 
0.186528 0.375849 -0.00920865 
0.401557 -0.409319 0.140758 
0.449924 -0.205349 0.15387 
0.319545 -0.0710728 0.0562808 
0.398479 0.0745844 0.0722667 
0.245068 0.432662 0.0564384 
VERTICES 500 1000
1 0
1 1
1 2
1 3
1 4
1 5
1 6
1 7
1 8
1 9
1 10
1 11
1 12
1 13
1 14
1 15
1 16
1 17
1 18
1 19
1 20
1 21
1 22
1 23
1 24
1 25
1 26
1 27
1 28
1 29
1 30
1 31
1 32
1 33
1 34
1 35
1 36
1 37
1 38
1 39
1 40
1 41
1 42
1 43
1 44
1 45
1 46
1 47
1 48
1 49
1 50
1 51
1 52
1 53
1 54
1 55
1 56
1 57
1 58
1 59
1 60
1 61
1 62
1 63
1 64
1 65
1 66
1 67
1 68
1 69
1 70
1 71
1 72
1 73
1 74
1 75
1 76
1 77
1 78
1 79
1 80
1 81
1 82
1 83
1 84
1 85
1 86
1 87
1 88
1 89
1 90
1 91
1 92
1 93
1 94
1 95
1 96
1 97
1 98
1 99
1 100
1 101
1 102
1 103
1 104
1 105
1 106
1 107
1 108
1 109
1 110
1 111
1 112
1 113
1 114
1 115
1 116
1 117
1 118
1 119
1 120
1 121
1 122
1 123
1 124
1 125
1 126
1 127
1 128
1 129
1 130
1 131
1 132
1 133
1 134
1 135
1 136
1 137
1 138
1 139
1 140
1 141
1 142
1 143
1 144
1 145
1 146
1 147
1 148
1 149
1 150
1 151
1 152
1 153
1 154
1 155
1 156
1 157
1 158
1 159
1 160
1 161
1 162
1 163
1 164
1 165
1 166
1 167
1 168
1 169
1 170
1 171
1 172
1 173
1 174
1 175
1 176
1 177
1 178
1 179
1 180
1 181
1 182
1 183
1 184
1 185
1 186
1 187
1 188
1 189
1 190
1 191
1 192
1 193
1 194
1 195
1 196
1 197
1 198
1 199
1 200
1 201
1 202
1 203
1 204
1 205
1 206
1 207
1 208
1 209
1 210
1 211
1 212
1 213
1 214
1 215
1 216
1 217
1 218
1 219
1 220
1 221
1 222
1 223
1 224
1 225
1 226
1 227
1 228
1 229
1 230
1 231
1 232
1 233
1 234
1 235
1 236
1 237
1 238
1 239
1 240
1 241
1 242
1 243
1 244
1 245
1 246
1 247
1 248
1 249
1 250
1 251
1 252
1 253
1 254
1 255
1 256
1 257
1 258
1 259
1 260
1 261
1 262
1 263
1 264
1 265
1 266
1 267
1 268
1 269
1 270
1 271
1 272
1 273
1 274
1 275
1 276
1 277
1 278
1 279
1 280
1 281
1 282
1 283
1 284
1 285
1 286
1 287
1 288
1 289
1 290
1 291
1 292
1 293
1 294
1 295
1 296
1 297
1 298
1 299
1 300
1 301
1 302
1 303
1 304
1 305
1 306
1 307
1 308
1 309
1 310
1 311
1 312
1 313
1 314
1 315
1 316
1 317
1 318
1 319
1 320
1 321
1 322
1 323
1 324
1 325
1 326
1 327
1 328
1 329
1 330
1 331
1 332
1 333
1 334
1 335
1 336
1 337
1 338
1 339
1 340
1 341
1 342
1 343
1 344
1 345
1 346
1 347
1 348
1 349
1 350
1 351
1 352
1 353
1 354
1 355
1 356
1 357
1 358
1 359
1 360
1 361
1 362
1 363
1 364
1 365
1 366
1 367
1 368
1 369
1 370
1 371
1 372
1 373
1 374
1 375
1 376
1 377
1 378
1 379
1 380
1 381
1 382
1 383
1 384
1 385
1 386
1 387
1 388
1 389
1 390
1 391
1 392
1 393
1 394
1 395
1 396
1 397
1 398
1 399
1 400
1 401
1 402
1 403
1 404
1 405
1 406
1 407
1 408
1 409
1 410
1 411
1 412
1 413
1 414
1 415
1 416
1 417
1 418
1 419
1 420
1 421
1 422
1 423
1 424
1 425
1 426
1 427
1 428
1 429
1 430
1 431
1 432
1 433
1 434
1 435
1 436
1 437
1 438
1 439
1 440
1 441
1 442
1 443
1 444
1 445
1 446
1 447
1 448
1 449
1 450
1 451
1 452
1 453
1 454
1 455
1 456
1 457
1 458
1 459
1 460
1 461
1 462
1 463
1 464
1 465
1 466
1 467
1 468
1 469
1 470
1 471
1 472
1 473
1 474
1 475
1 476
1 477
1 478
1 479
1 480
1 481
1 482
1 483
1 484
1 485
1 486
1 487
1 488
1 489
1 490
1 491
1 492
1 493
1 494
1 495
1 496
1 497
1 498
1 499
POINT_DATA 500
SCALARS id int 1
LOOKUP_TABLE default
0
1
2
3
4
5
6
7
8
9
10
11
12
13
14
15
16
17
18
19
20
21
22
23
24
25
26
27
28
29
30
31
32
33
34
35
36
37
38
39
40
41
42
43
44
45
46
47
48
49
50
51
52
53
54
55
56
57
58
59
60
61
62
63
64
65
66
67
68
69
70
71
72
73
74
75
76
77
78
79
80
81
82
83
84
85
86
87
88
89
90
91
92
93
94
95
96
97
98
99
100
101
102
103
104
105
106
107
108
109
110
111
112
113
114
115
116
117
118
119
120
121
122
123
124
125
126
127
128
129
130
131
132
133
134
135
136
137
138
139
140
141
142
143
144
145
146
147
148
149
150
151
152
153
154
155
156
157
158
159
160
161
162
163
164
165
166
167
168
169
170
171
172
173
174
175
176
177
178
179
180
181
182
183
184
185
186
187
188
189
190
191
192
193
194
195
196
197
198
199
200
201
202
203
204
205
206
207
208
209
210
211
212
213
214
215
216
217
218
219
220
221
222
223
224
225
226
227
228
229
230
231
232
233
234
235
236
237
238
239
240
241
242
243
244
245
246
247
248
249
250
251
252
253
254
255
256
257
258
259
260
261
262
263
264
265
266
267
268
269
270
271
272
273
274
275
276
277
278
279
280
281
282
283
284
285
286
287
288
289
290
291
292
293
294
295
296
297
298
299
300
301
302
303
304
305
306
307
308
309
310
311
312
313
314
315
316
317
318
319
320
321
322
323
324
325
326
327
328
329
330
331
332
333
334
335
336
337
338
339
340
341
342
343
344
345
346
347
348
349
350
351
352
353
354
355
356
357
358
359
360
361
362
363
364
365
366
367
368
369
370
371
372
373
374
375
376
377
378
379
380
381
382
383
384
385
386
387
388
389
390
391
392
393
394
395
396
397
398
399
400
401
402
403
404
405
406
407
408
409
410
411
412
413
414
415
416
417
418
419
420
421
422
423
424
425
426
427
428
429
430
431
432
433
434
435
436
437
438
439
440
441
442
443
444
445
446
447
448
449
450
451
452
453
454
455
456
457
458
459
460
461
462
463
464
465
466
467
468
469
470
471
472
473
474
475
476
477
478
479
480
481
482
483
484
485
486
487
488
489
490
491
492
493
494
495
496
497
498
499
SCALARS type int 1
LOOKUP_TABLE default
0
0
0
0
0
0
0
0
0
0
0
0
0
0
0
0
0
0
0
0
0
0
0
0
0
0
0
0
0
0
0
0
0
0
0
0
0
0
0
0
0
0
0
0
0
0
0
0
0
0
0
0
0
0
0
0
0
0
0
0
0
0
0
0
0
0
0
0
0
0
0
0
0
0
0
0
0
0
0
0
0
0
0
0
0
0
0
0
0
0
0
0
0
0
0
0
0
0
0
0
0
0
0
0
0
0
0
0
0
0
0
0
0
0
0
0
0
0
0
0
0
0
0
0
0
0
0
0
0
0
0
0
0
0
0
0
0
0
0
0
0
0
0
0
0
0
0
0
0
0
0
0
0
0
0
0
0
0
0
0
0
0
0
0
0
0
0
0
0
0
0
0
0
0
0
0
0
0
0
0
0
0
0
0
0
0
0
0
0
0
0
0
0
0
0
0
0
0
0
0
0
0
0
0
0
0
0
0
0
0
0
0
0
0
0
0
0
0
0
0
0
0
0
0
0
0
0
0
0
0
0
0
0
0
0
0
0
0
0
0
0
0
0
0
0
0
0
0
0
0
0
0
0
0
0
0
0
0
0
0
0
0
0
0
0
0
0
0
0
0
0
0
0
0
0
0
0
0
0
0
0
0
0
0
0
0
0
0
0
0
0
0
0
0
0
0
0
0
0
0
0
0
0
0
0
0
0
0
0
0
0
0
0
0
0
0
0
0
0
0
0
0
0
0
0
0
0
0
0
0
0
0
0
0
0
0
0
0
0
0
0
0
0
0
0
0
0
0
0
0
0
0
0
0
0
0
0
0
0
0
0
0
0
0
0
0
0
0
0
0
0
0
0
0
0
0
0
0
0
0
0
0
0
0
0
0
0
0
0
0
0
0
0
0
0
0
0
0
0
0
0
0
0
0
0
0
0
0
0
0
0
0
0
0
0
0
0
0
0
0
0
0
0
0
0
0
0
0
0
0
0
0
0
0
0
0
0
0
0
0
0
0
0
0
0
0
0
0
0
0
0
0
0
0
0
0
0
0
0
0
0
0
0
0
0
0
0
0
0
0
0
0
0
0
0
0
0
0
0
0
0
0
0
0
0
0
0
0
0
0
0
0
0
0
0
0
0
0
0
0
SCALARS damp_viscous double 1
LOOKUP_TABLE default
0
0
0
0
0
0
0
0
0
0
0
0
0
0
0
0
0
0
0
0
0
0
0
0
0
0
0
0
0
0
0
0
0
0
0
0
0
0
0
0
0
0
0
0
0
0
0
0
0
0
0
0
0
0
0
0
0
0
0
0
0
0
0
0
0
0
0
0
0
0
0
0
0
0
0
0
0
0
0
0
0
0
0
0
0
0
0
0
0
0
0
0
0
0
0
0
0
0
0
0
0
0
0
0
0
0
0
0
0
0
0
0
0
0
0
0
0
0
0
0
0
0
0
0
0
0
0
0
0
0
0
0
0
0
0
0
0
0
0
0
0
0
0
0
0
0
0
0
0
0
0
0
0
0
0
0
0
0
0
0
0
0
0
0
0
0
0
0
0
0
0
0
0
0
0
0
0
0
0
0
0
0
0
0
0
0
0
0
0
0
0
0
0
0
0
0
0
0
0
0
0
0
0
0
0
0
0
0
0
0
0
0
0
0
0
0
0
0
0
0
0
0
0
0
0
0
0
0
0
0
0
0
0
0
0
0
0
0
0
0
0
0
0
0
0
0
0
0
0
0
0
0
0
0
0
0
0
0
0
0
0
0
0
0
0
0
0
0
0
0
0
0
0
0
0
0
0
0
0
0
0
0
0
0
0
0
0
0
0
0
0
0
0
0
0
0
0
0
0
0
0
0
0
0
0
0
0
0
0
0
0
0
0
0
0
0
0
0
0
0
0
0
0
0
0
0
0
0
0
0
0
0
0
0
0
0
0
0
0
0
0
0
0
0
0
0
0
0
0
0
0
0
0
0
0
0
0
0
0
0
0
0
0
0
0
0
0
0
0
0
0
0
0
0
0
0
0
0
0
0
0
0
0
0
0
0
0
0
0
0
0
0
0
0
0
0
0
0
0
0
0
0
0
0
0
0
0
0
0
0
0
0
0
0
0
0
0
0
0
0
0
0
0
0
0
0
0
0
0
0
0
0
0
0
0
0
0
0
0
0
0
0
0
0
0
0
0
0
0
0
0
0
0
0
0
0
0
0
0
0
0
0
0
0
0
0
0
0
0
0
0
0
0
0
0
0
0
0
0
0
0
0
0
0
0
0
0
0
0
0
0
0
0
0
0
0
0
0
0
0
SCALARS damp_numerical double 1
LOOKUP_TABLE default
0.5
0.5
0.5
0.5
0.5
0.5
0.5
0.5
0.5
0.5
0.5
0.5
0.5
0.5
0.5
0.5
0.5
0.5
0.5
0.5
0.5
0.5
0.5
0.5
0.5
0.5
0.5
0.5
0.5
0.5
0.5
0.5
0.5
0.5
0.5
0.5
0.5
0.5
0.5
0.5
0.5
0.5
0.5
0.5
0.5
0.5
0.5
0.5
0.5
0.5
0.5
0.5
0.5
0.5
0.5
0.5
0.5
0.5
0.5
0.5
0.5
0.5
0.5
0.5
0.5
0.5
0.5
0.5
0.5
0.5
0.5
0.5
0.5
0.5
0.5
0.5
0.5
0.5
0.5
0.5
0.5
0.5
0.5
0.5
0.5
0.5
0.5
0.5
0.5
0.5
0.5
0.5
0.5
0.5
0.5
0.5
0.5
0.5
0.5
0.5
0.5
0.5
0.5
0.5
0.5
0.5
0.5
0.5
0.5
0.5
0.5
0.5
0.5
0.5
0.5
0.5
0.5
0.5
0.5
0.5
0.5
0.5
0.5
0.5
0.5
0.5
0.5
0.5
0.5
0.5
0.5
0.5
0.5
0.5
0.5
0.5
0.5
0.5
0.5
0.5
0.5
0.5
0.5
0.5
0.5
0.5
0.5
0.5
0.5
0.5
0.5
0.5
0.5
0.5
0.5
0.5
0.5
0.5
0.5
0.5
0.5
0.5
0.5
0.5
0.5
0.5
0.5
0.5
0.5
0.5
0.5
0.5
0.5
0.5
0.5
0.5
0.5
0.5
0.5
0.5
0.5
0.5
0.5
0.5
0.5
0.5
0.5
0.5
0.5
0.5
0.5
0.5
0.5
0.5
0.5
0.5
0.5
0.5
0.5
0.5
0.5
0.5
0.5
0.5
0.5
0.5
0.5
0.5
0.5
0.5
0.5
0.5
0.5
0.5
0.5
0.5
0.5
0.5
0.5
0.5
0.5
0.5
0.5
0.5
0.5
0.5
0.5
0.5
0.5
0.5
0.5
0.5
0.5
0.5
0.5
0.5
0.5
0.5
0.5
0.5
0.5
0.5
0.5
0.5
0.5
0.5
0.5
0.5
0.5
0.5
0.5
0.5
0.5
0.5
0.5
0.5
0.5
0.5
0.5
0.5
0.5
0.5
0.5
0.5
0.5
0.5
0.5
0.5
0.5
0.5
0.5
0.5
0.5
0.5
0.5
0.5
0.5
0.5
0.5
0.5
0.5
0.5
0.5
0.5
0.5
0.5
0.5
0.5
0.5
0.5
0.5
0.5
0.5
0.5
0.5
0.5
0.5
0.5
0.5
0.5
0.5
0.5
0.5
0.5
0.5
0.5
0.5
0.5
0.5
0.5
0.5
0.5
0.5
0.5
0.5
0.5
0.5
0.5
0.5
0.5
0.5
0.5
0.5
0.5
0.5
0.5
0.5
0.5
0.5
0.5
0.5
0.5
0.5
0.5
0.5
0.5
0.5
0.5
0.5
0.5
0.5
0.5
0.5
0.5
0.5
0.5
0.5
0.5
0.5
0.5
0.5
0.5
0.5
0.5
0.5
0.5
0.5
0.5
0.5
0.5
0.5
0.5
0.5
0.5
0.5
0.5
0.5
0.5
0.5
0.5
0.5
0.5
0.5
0.5
0.5
0.5
0.5
0.5
0.5
0.5
0.5
0.5
0.5
0.5
0.5
0.5
0.5
0.5
0.5
0.5
0.5
0.5
0.5
0.5
0.5
0.5
0.5
0.5
0.5
0.5
0.5
0.5
0.5
0.5
0.5
0.5
0.5
0.5
0.5
0.5
0.5
0.5
0.5
0.5
0.5
0.5
0.5
0.5
0.5
0.5
0.5
0.5
0.5
0.5
0.5
0.5
0.5
0.5
0.5
0.5
0.5
0.5
0.5
0.5
0.5
0.5
0.5
0.5
0.5
0.5
0.5
0.5
0.5
0.5
0.5
0.5
0.5
0.5
0.5
0.5
0.5
0.5
0.5
0.5
0.5
0.5
0.5
0.5
0.5
0.5
0.5
0.5
0.5
0.5
0.5
0.5
0.5
0.5
0.5
0.5
0.5
0.5
0.5
0.5
0.5
0.5
0.5
0.5
0.5
0.5
0.5
0.5
0.5
0.5
0.5
0.5
0.5
0.5
0.5
0.5
0.5
0.5
0.5
0.5
0.5
0.5
0.5
0.5
0.5
0.5
SCALARS quat double 4
LOOKUP_TABLE default
0.801858 0.0077101 -0.0654885 0.593864 
0.792666 0.0956141 0.602111 0.00120947 
0.989908 0.0729158 -0.0457377 -0.112577 
-0.363293 -0.502783 -0.531655 -0.576689 
0.127437 0.531277 -0.542761 0.637899 
0.808971 -0.267076 -0.194098 0.486376 
0.343733 -0.784276 -0.149002 0.494527 
0.886384 0.0295853 0.385066 0.25529 
-0.0966739 0.444176 0.890347 -0.0253613 
0.0376106 0.0993254 0.0492523 0.993123 
0.857437 0.157285 -0.0564176 0.486704 
0.0629331 -0.929714 -0.069006 -0.356243 
0.207373 0.452428 -0.0711674 0.864431 
0.607795 0.694731 0.370598 -0.102917 
0.320926 0.832121 -0.208492 0.401388 
0.990858 0.0953801 -0.0711195 0.0636025 
0.715783 0.0542289 -0.0102155 0.696139 
0.984804 0.100597 -0.0768164 0.118912 
0.977132 0.124073 -0.10985 0.133239 
-0.712746 0.236982 0.65583 0.0756321 
0.822971 0.20352 0.481588 -0.222195 
-0.254326 0.893526 -0.206263 0.307221 
0.81166 -0.251668 -0.429523 -0.305581 
0.500629 0.765239 -0.395955 -0.0836617 
0.984295 0.0837341 -0.0904095 0.126406 
0.818803 0.155327 -0.210301 0.511085 
-0.731145 0.545184 -0.392775 0.118026 
0.968738 0.11446 -0.191438 -0.108612 
0.864605 -0.23614 -0.415686 0.154601 
-0.164848 0.37994 -0.325059 0.850181 
0.66538 0.459738 0.486532 0.330451 
-0.196134 -0.562325 -0.577321 -0.55859 
0.275146 0.010958 -0.899381 0.339542 
0.0753663 0.116158 0.0853161 0.986686 
0.531062 0.76126 0.138533 -0.345349 
0.529795 -0.424179 -0.0282739 0.733887 
-0.17507 0.554675 -0.423376 0.694578 
0.274846 0.206389 0.209401 0.915431 
0.749073 -0.61943 -0.206856 0.111384 
0.567356 0.595029 -0.151656 -0.548679 
0.923599 0.158191 -0.192829 0.291133 
0.694452 0.189508 -0.0656768 0.691021 
0.987709 -0.0996556 -0.117951 -0.0242163 
-0.0216259 0.847194 0.507421 -0.155944 
0.819352 -0.501229 -0.196019 -0.197502 
0.264853 0.276317 -0.648358 0.658128 
0.549081 -0.154537 0.108151 -0.814206 
-0.945655 0.204307 -0.19544 0.160617 
0.36934 0.679773 -0.564016 0.288759 
-0.861459 0.491728 0.068654 -0.106668 
0.906296 0.350876 -0.184956 -0.145959 
-0.218815 0.460018 0.828728 -0.231763 
0.714636 0.079726 0.616464 -0.320798 
-0.614365 0.436702 -0.656302 0.0333691 
-0.443996 0.587315 0.408689 -0.539353 
-0.341704 0.578723 0.727415 -0.138512 
-0.173592 0.231413 0.890197 -0.351942 
0.0482353 -0.0491842 -0.895743 -0.439203 
-0.166555 0.112967 0.713031 -0.671629 
0.329104 -0.92241 -0.161807 0.121115 
-0.40918 0.31071 0.692709 -0.506148 
-0.8852 -0.122387 0.0541537 0.445544 
-0.29416 -0.705661 0.130344 0.631287 
0.154874 0.157396 0.964146 0.147183 
-0.0730257 0.0395581 0.992782 -0.0865277 
0.893605 0.296222 -0.32691 -0.0827805 
0.00945571 -0.965612 -0.165467 0.20031 
0.958049 -0.17547 -0.151822 0.168232 
0.891787 0.0529918 0.394905 -0.214378 
-0.965069 0.100773 0.0100487 -0.24163 
0.691477 -0.636712 -0.18895 0.284175 
-0.64219 -0.650487 -0.380068 -0.141449 
0.249291 0.376201 -0.00725376 -0.892342 
-0.649353 0.664617 -0.323605 -0.178619 
0.954375 -0.201172 0.00731616 -0.220554 
0.951383 0.0835611 -0.0708575 -0.287866 
0.636156 -0.0594683 -0.660751 0.393926 
0.8889 -0.334089 0.312231 -0.0274427 
-0.690922 -0.230317 0.0203051 0.684958 
-0.594556 0.372271 -0.0585317 -0.710276 
0.945478 0.0365586 0.320358 -0.0458897 
-0.234318 0.916862 0.00220571 0.323193 
0.73272 -0.0116746 0.679087 -0.0427332 
-0.241194 0.843297 -0.280212 0.390073 
0.938912 -0.297455 0.163043 -0.058147 
0.782126 -0.550345 -0.274724 0.0996295 
-0.0698611 -0.470255 -0.0912736 -0.875013 
0.737988 0.380029 0.0509113 -0.555301 
0.327072 0.931838 0.0571342 -0.146417 
-0.293876 0.580774 -0.68083 0.335871 
0.812832 -0.363111 0.415225 -0.187197 
-0.833437 0.343568 -0.406703 0.148113 
0.866286 -0.0296745 -0.439205 0.23615 
0.733717 -0.540424 0.404718 0.0761889 
0.787916 0.0556423 0.328109 -0.518108 
0.304007 -0.573521 -0.520882 -0.554378 
0.249117 -0.748007 0.551132 0.273278 
0.345788 -0.0293907 -0.918919 0.187494 
-0.546532 0.599854 0.340103 -0.475192 
0.984065 -0.124527 -0.035793 -0.121774 
0.828925 -0.160879 -0.090169 -0.528083 
0.451992 0.431082 0.758377 0.186376 
-0.224562 0.430624 -0.873703 -0.0278772 
-0.513461 -0.482904 -0.696345 0.135147 
-0.209843 -0.0804121 -0.527073 0.819569 
0.858926 0.262282 0.151907 0.41277 
-0.876203 0.352201 0.224523 -0.24044 
0.546463 0.655751 0.419003 0.309524 
0.888185 0.273274 -0.138806 -0.342319 
-0.0759654 0.252844 -0.946813 0.183967 
0.00143537 -0.560454 -0.632876 0.534189 
-0.496702 -0.17096 0.795728 0.301457 
-0.0782141 -0.191016 0.118139 -0.971308 
0.851985 -0.238354 0.392688 0.251209 
-0.301704 0.0376734 -0.000577744 0.952657 
0.896662 -0.366483 0.219178 -0.116826 
0.223032 -0.726977 0.609924 0.223057 
0.368439 -0.0975548 -0.469088 0.796676 
0.848905 -0.0237433 0.190752 0.492352 
0.167513 0.10984 -0.814095 0.54509 
0.0406035 0.368162 0.29287 -0.881496 
-0.155564 -0.286206 -0.826898 0.458394 
0.324024 -0.459285 -0.415014 -0.715422 
-0.895304 -0.254946 -0.258639 0.257953 
0.796746 -0.561819 0.00678119 0.222507 
0.758511 0.346969 -0.523461 -0.17396 
0.442568 0.542541 0.56531 -0.436128 
0.529933 0.264296 0.194161 -0.782061 
-0.417636 0.117235 0.895401 -0.100464 
0.459509 -0.393273 0.694724 0.38929 
-0.0296037 0.185229 0.946858 -0.261293 
-0.959046 0.0436182 -0.135807 -0.244714 
-0.163246 -0.632151 -0.72498 -0.219408 
0.242048 0.183407 -0.952548 -0.0206597 
0.137989 -0.914475 0.242223 0.293296 
0.0745369 -0.145408 0.766316 0.621338 
0.170225 0.698064 0.34299 0.605052 
-0.811619 -0.536229 0.135976 -0.187733 
0.342073 0.917363 -0.156333 -0.130353 
-0.114746 0.802271 -0.585804 0.00527784 
-0.390524 0.136786 -0.90149 0.126872 
0.315017 -0.430761 0.159103 0.8306 
-0.185346 0.519204 -0.278458 0.78647 
0.948988 -0.253245 -0.172373 0.0746722 
-0.000506192 -0.509427 -0.79371 -0.332427 
-0.353882 -0.864145 0.21083 0.289087 
0.513653 -0.658354 0.376532 -0.401191 