# vtk DataFile Version 2.0
Generated by NetDEM
ASCII 
DATASET POLYDATA
POINTS 500 double
-0.418958 -0.408339 -0.464066 
-0.449628 -0.194171 -0.450023 
-0.407354 -0.0104148 -0.462057 
-0.450011 0.110053 -0.450027 
-0.438206 0.349303 -0.45003 
-0.270891 -0.429835 -0.459157 
-0.30487 -0.21998 -0.450072 
-0.191562 -0.010836 -0.450061 
-0.172708 0.17325 -0.463922 
-0.2546 0.366589 -0.463475 
-0.0559329 -0.396881 -0.461159 
-0.146536 -0.134365 -0.450014 
-0.0555103 -0.0920966 -0.450027 
0.0379914 0.180085 -0.452759 
-0.0298198 0.31872 -0.442501 
0.193205 -0.401541 -0.462907 
0.169538 -0.210047 -0.463263 
0.172648 -0.0051109 -0.462794 
0.161341 0.207543 -0.465073 
0.297889 0.403101 -0.41877 
0.449993 -0.409872 -0.450053 
0.433201 -0.300337 -0.450018 
0.338359 -0.0122618 -0.450007 
0.377255 0.089004 -0.450014 
0.372122 0.439462 -0.465054 
-0.430868 -0.411081 -0.393962 
-0.450001 -0.271084 -0.386127 
-0.408214 -0.0177101 -0.387265 
-0.445696 0.175977 -0.374974 
-0.450019 0.449178 -0.450039 
-0.336502 -0.406867 -0.407527 
-0.239947 -0.150848 -0.418378 
-0.156524 -0.10047 -0.211161 
-0.304576 0.164461 -0.465047 
-0.15011 0.403713 -0.45076 
-0.0874997 -0.390909 -0.396354 
0.310646 -0.245661 -0.131925 
-0.0413568 -0.0161516 -0.308889 
0.0284609 0.259766 -0.450528 
0.121956 0.30189 -0.429933 
0.20227 -0.414211 -0.390734 
0.166788 -0.2062 -0.390199 
0.175368 0.0162582 -0.386016 
0.197346 0.112853 -0.455762 
0.285382 0.369536 -0.325424 
0.382735 -0.450008 -0.387875 
0.435428 -0.356101 -0.367045 
0.275768 -0.211612 -0.450015 
0.450006 0.141107 -0.405397 
0.425274 0.340923 -0.456377 
-0.435716 -0.441073 -0.326053 
-0.320637 -0.209176 -0.351961 
-0.31222 -0.0201619 -0.368718 
-0.289325 0.270421 -0.450018 
-0.450017 0.275524 -0.383613 
-0.180518 -0.373128 -0.452017 
0.183214 -0.336937 -0.300471 
-0.23875 -0.0562756 -0.175297 
-0.174917 0.0780096 -0.450339 
-0.350297 0.330733 -0.336891 
0.0437951 -0.439762 -0.449704 
0.207238 -0.284864 -0.14844 
0.205487 0.0623997 -0.206326 
-0.0400538 0.221646 -0.392835 
0.256247 0.331548 -0.463558 
0.196936 -0.434987 -0.319619 
0.0518395 -0.0962846 -0.450558 
0.161526 0.0609466 -0.331664 
0.272028 0.0650244 -0.442606 
0.113118 0.138816 -0.397653 
0.300334 -0.44693 -0.450007 
0.377697 -0.216268 -0.45005 
0.379297 -0.109812 -0.45002 
0.449999 0.232496 -0.364832 
0.437652 0.256468 -0.459873 
-0.433701 -0.452853 -0.243642 
-0.176067 -0.16362 -0.342535 
-0.238997 -0.00421563 -0.353113 
-0.269812 0.0897442 -0.404538 
-0.354763 0.143001 -0.348054 
-0.160715 -0.448638 -0.394327 
-0.126602 -0.0565719 -0.389361 
-0.239416 0.048266 -0.224564 
-0.0548716 0.128212 -0.444644 
-0.355551 0.380426 -0.407804 
0.0922363 -0.451499 -0.355515 
0.449215 -0.333367 -0.0785844 
-0.188079 -0.239552 -0.450009 
0.0173595 0.0472467 -0.450234 
0.0673299 0.398158 -0.410041 
0.260686 -0.445957 -0.244048 
0.154947 -0.318496 -0.400397 
0.121553 0.067659 -0.269986 
0.264539 0.174902 -0.443424 
0.144251 0.450015 -0.450017 
0.347015 -0.310925 -0.354671 
0.449996 -0.106233 -0.379406 
0.387345 0.160819 -0.329573 
0.331038 0.30899 -0.412261 
0.436475 0.371932 -0.377322 
-0.387336 -0.439639 -0.169638 
-0.367736 -0.360785 -0.119457 
-0.29456 -0.0400179 -0.274926 
-0.367064 0.0681339 -0.413167 
-0.447647 0.426321 -0.352742 
-0.268435 -0.438997 -0.363281 
-0.0630892 -0.157371 -0.374451 
-0.249145 0.0399894 -0.125401 
-0.00347271 -0.0237721 -0.396839 
-0.423229 0.242521 -0.46399 
0.0827315 -0.3425 -0.44073 
0.355174 -0.212074 -0.0481374 
0.0353491 -0.119171 -0.351019 
0.0282886 0.0424923 -0.355019 
-0.00291724 0.436735 -0.464348 
0.302065 -0.385551 -0.215855 
0.259748 -0.315132 -0.424263 
0.0392651 0.0689049 -0.260326 
0.246445 0.240879 -0.380233 
0.34875 0.450011 -0.270916 
0.327788 -0.405833 -0.316958 
0.45003 -0.20936 -0.381411 
0.45 -0.030809 -0.450007 
0.339771 0.209851 -0.402598 
0.397784 0.453089 -0.37383 
-0.462102 -0.452471 -0.126135 
-0.320367 -0.139353 -0.280437 
-0.45135 -0.0307458 -0.319897 
-0.25271 0.190049 -0.394058 
-0.306205 0.448898 -0.359151 
-0.163566 -0.374596 -0.337927 
-0.0849744 -0.222677 -0.450007 
-0.194333 -0.161523 -0.141569 
-0.134612 0.148098 -0.397241 
-0.228581 0.332671 -0.394097 
-0.0923492 -0.310616 -0.451302 
0.287931 -0.318765 -0.0675904 
0.45001 0.0525756 -0.160167 
0.0456132 0.120614 -0.330674 
-0.114859 0.312935 -0.405854 
0.162779 -0.432316 -0.234221 
0.238687 -0.1403 -0.393128 
0.110362 -0.0230773 -0.220077 
0.1962 0.307051 -0.339076 
0.201468 0.385259 -0.396385 
0.449993 -0.439868 -0.314437 
0.334915 -0.173162 -0.370595 
0.250151 -0.0610772 -0.45004 
0.448847 0.0508672 -0.362307 
0.440788 0.408051 -0.29975 
-0.438718 -0.457615 -0.010986 
-0.228375 -0.171332 -0.25757 
-0.423538 -0.112887 -0.405866 
-0.206972 0.271746 -0.332435 
-0.336239 0.239329 -0.367375 
-0.14004 -0.289874 -0.369778 
0.12965 -0.450023 -0.0925142 
-0.306486 0.363597 -0.180086 
-0.10581 0.275182 -0.326076 
-0.223861 0.454657 -0.433393 
-0.00133485 -0.339748 -0.359227 
0.117888 -0.239521 -0.14911 
-0.17708 -0.0697446 -0.304071 
0.0187937 0.200339 -0.301213 
0.00989411 0.294353 -0.348699 
0.0753603 -0.412386 -0.273926 
0.135281 -0.0966804 -0.398238 
0.257464 -0.117717 -0.264967 
0.231841 0.184434 -0.324462 
0.139631 0.448797 -0.350123 
0.387582 -0.228065 -0.305624 
0.344089 -0.0675548 -0.366509 
0.321408 0.0577693 -0.371994 
0.40184 0.302909 -0.310433 
0.446624 0.377542 -0.212976 
-0.32929 -0.446681 -0.0673683 
-0.448604 -0.0990925 -0.263328 
-0.357176 0.0111949 -0.241564 
-0.45 0.0686561 -0.354162 
-0.418379 0.261127 -0.289883 
-0.267593 -0.308912 -0.446476 
-0.179725 -0.276241 -0.241077 
-0.143427 0.400202 -0.074532 
-0.126168 0.189061 -0.333836 
-0.139701 0.441998 -0.349948 
0.00609263 -0.435291 -0.356064 
0.0156564 -0.0965976 -0.255633 
0.0157249 -0.224478 -0.450007 
-0.0270654 0.270391 -0.246623 
-0.0058356 0.411223 -0.369584 
0.074753 -0.426718 -0.172316 
0.0979932 -0.0405267 -0.330852 
0.287704 -0.16041 -0.186769 
0.203369 0.136931 -0.267673 
0.249058 0.45002 -0.278575 
0.450007 -0.309288 -0.279834 
0.450006 -0.14938 -0.289202 
0.365009 0.0398629 -0.283855 
0.317661 0.248958 -0.309116 
0.382196 0.42681 -0.194905 
-0.244804 -0.444463 -0.142285 
-0.44312 0.230237 -0.19808 
-0.293187 0.191176 -0.183143 
-0.189751 0.0759344 -0.34235 
-0.375787 0.449956 -0.287358 
-0.226224 -0.349203 -0.241528 
-0.0437882 -0.261601 -0.306336 
0.0154507 -0.243275 -0.227869 
-0.157972 0.116229 -0.253218 
-0.167423 0.350998 -0.32758 
-0.0437252 -0.386146 -0.290639 
-0.186017 -0.0953602 0.192265 
-0.0276078 0.205049 -0.165784 
-0.0556839 0.117794 -0.310229 
0.103569 0.359096 -0.328608 
0.26225 -0.434502 -0.133137 
0.218911 -0.19656 -0.310553 
0.293557 -0.106401 -0.119945 
0.151033 0.227802 -0.288351 
0.203435 0.352208 -0.252444 
0.410286 -0.38892 -0.234205 
0.446466 -0.225873 -0.224801 
0.43516 -0.034232 -0.311624 
0.303704 0.118559 -0.290873 
0.406787 0.404214 -0.121926 
-0.253117 -0.332532 -0.149902 
-0.416628 -0.334931 -0.316779 
-0.430123 0.330776 -0.133519 
-0.341358 0.323428 -0.0584164 
-0.448923 0.426656 -0.00617845 
-0.141705 -0.416922 -0.250815 
-0.0526844 0.13642 -0.0623066 
-0.259796 -0.176627 -0.0215498 
-0.183496 0.176034 -0.182673 
-0.158853 0.338239 -0.219235 
-0.0616572 -0.384872 -0.204249 
-0.137545 -0.141409 -0.0105628 
-0.112022 -0.0252843 -0.162211 
-0.00369547 0.11038 -0.194258 
0.0253321 0.446613 -0.276972 
0.298318 -0.329478 -0.168519 
0.246846 -0.295221 -0.34222 
0.350621 -0.0516781 -0.0686473 
0.154796 0.272596 -0.217024 
0.207868 0.406018 -0.133037 
0.358312 -0.450003 -0.169319 
0.449986 -0.199537 -0.0773013 
0.33602 0.130145 -0.000952687 
0.449978 0.152886 -0.172678 
0.425845 0.388086 -0.0411915 
-0.298006 -0.320176 -0.347281 
-0.117892 -0.203965 -0.271935 
-0.325233 -0.0199992 -0.143479 
-0.219454 0.20558 -0.258508 
-0.423279 0.44446 -0.199562 
-0.24865 -0.429691 -0.268758 
0.098335 -0.283597 -0.305768 
-0.308915 0.257084 -0.125828 
-0.247936 0.302136 -0.205943 
-0.150351 0.442548 -0.239425 
0.0164065 -0.381154 -0.160648 
0.450002 -0.389761 0.00397115 
0.0765828 0.437094 -0.18633 
-0.0741416 0.406787 -0.32084 
-0.03803 0.447899 -0.216356 
0.354106 -0.395695 -0.0867368 
0.372795 -0.0982829 -0.16757 
0.195102 -0.0259316 -0.288202 
0.221482 0.19941 -0.197652 
0.0882854 0.238837 -0.366845 
0.356129 -0.302384 -0.244007 
0.351417 -0.149499 -0.255254 
0.450043 0.083857 -0.255106 
0.44891 0.216006 -0.266238 
0.408175 0.450905 -0.0126241 
-0.336807 -0.393855 0.0197815 
-0.138335 -0.345751 -0.133223 
-0.433199 -0.112074 -0.179241 
-0.450013 0.0949118 -0.170168 
-0.345763 0.197242 -0.264529 
-0.144529 -0.443064 -0.161809 
-0.0635553 -0.28967 -0.176151 
-0.228897 0.450002 -0.295738 
-0.282409 0.311644 -0.280982 
-0.218253 0.435259 -0.165919 
0.0406326 -0.406386 -0.0753166 
-0.115339 0.450002 0.126751 
0.0319591 0.182695 -0.0886277 
-0.0712776 0.306785 -0.192348 
0.00609159 0.368018 -0.180667 
0.270019 -0.41836 -0.0231738 
0.0283781 -0.0909937 -0.00384868 
0.145744 -0.0379197 -0.13498 
0.288414 0.173703 -0.140305 
0.0704764 0.253691 -0.150683 
0.40595 -0.281793 -0.152507 
0.450008 -0.147577 -0.162712 
0.330704 -0.0521934 -0.265262 
0.450002 0.277068 -0.187045 
0.301611 0.414645 -0.0776004 
-0.290684 -0.35402 -0.0586576 
-0.417861 0.000773679 -0.180284 
-0.393674 -0.296367 -0.0641883 
-0.43209 0.137357 -0.28373 
-0.450011 0.450004 -0.103386 
-0.156279 -0.427686 -0.0609105 
-0.137786 -0.321451 -0.034572 
-0.281218 0.0909006 -0.304773 
-0.134533 0.278921 -0.104037 
-0.250325 0.380967 -0.0936164 
-0.0218198 -0.426342 -0.0127752 
-0.407117 -0.173655 -0.316455 
0.0116422 -0.00317194 -0.219866 
-0.0438673 0.290929 -0.0852315 
-0.00881462 0.443696 -0.12727 
0.152543 -0.390572 -0.0120455 
0.451784 0.0031366 0.0182349 
0.0756382 -0.0285364 -0.0675551 
0.304052 0.336632 -0.200656 
0.281732 0.450017 -0.184066 
0.372565 -0.45 -0.016209 
0.43938 -0.0453464 0.0949717 
0.245856 -0.0570494 -0.350246 
0.348187 0.252785 -0.186823 
0.439452 0.452724 0.0759226 
-0.347782 -0.213722 0.0124793 
-0.388362 -0.27182 -0.160229 
-0.418836 0.10153 -0.0887269 
-0.388319 0.315477 -0.211504 
-0.449933 0.365988 -0.273032 
-0.173989 -0.433783 0.0539351 
-0.0577018 -0.14975 -0.213304 
-0.22467 0.29092 -0.0839091 
-0.102064 0.385407 -0.16104 
-0.0738731 0.440183 -0.0446805 
-0.0918931 -0.446495 0.032262 
0.0794806 -0.166574 -0.223542 
-0.0685125 0.0662406 -0.131758 
0.0331886 0.249344 -0.0275071 
0.0078693 0.423419 -0.0540843 
0.13718 -0.336553 -0.0919829 
0.177957 -0.189615 -0.225079 
0.126814 0.151092 -0.180226 
0.312745 0.221071 -0.0552155 
0.171343 0.450002 -0.215609 
0.45 -0.416474 -0.146675 
0.320808 -0.267429 0.0276925 
0.411725 -0.021587 -0.215241 
0.369875 0.165801 -0.231133 
0.418851 0.27289 0.179081 
-0.420903 -0.381841 0.0629977 
-0.450016 -0.216301 -0.236854 
-0.365554 0.218322 -0.0735814 
-0.447932 0.0629342 0.00278576 
-0.450014 0.194676 -0.104887 
-0.227293 -0.379379 0.0043644 
-0.277359 -0.111629 -0.0954762 
-0.322399 -0.110323 -0.184726 
-0.191084 0.356976 0.00734239 
-0.13208 0.399779 0.0314028 
0.0414227 -0.186713 -0.122363 
-0.150449 -0.247875 -0.116612 
0.219614 0.136213 -0.0726094 
0.105445 0.317255 -0.0303565 
-0.0205941 0.43952 0.0368957 
0.0776119 -0.215193 -0.0130379 
0.455556 -0.0728637 -0.105024 
0.281645 0.0621589 -0.0186392 
0.190779 0.224237 -0.107873 
0.10374 0.336501 0.0874263 
0.398995 -0.0785686 0.00971892 
0.448805 -0.267216 -0.00359439 
0.365886 0.0106058 -0.126154 
0.426696 0.111824 -0.0830948 
0.327262 0.318705 -0.104236 
-0.427472 -0.179511 -0.127802 
-0.450003 -0.241892 -0.0260447 
-0.396019 -0.00574359 -0.0856231 
-0.449966 0.282501 0.060067 
-0.343566 0.448182 -0.139239 
-0.239394 -0.304843 0.0684188 
-0.274372 -0.275211 -0.013397 
-0.326608 0.062264 -0.041408 
-0.11954 0.218792 -0.0385751 
-0.127223 0.194014 0.0403155 
0.0272493 -0.312518 -0.00838943 
-0.121612 -0.104871 -0.102275 
0.111748 0.112884 -0.0885455 
-0.156242 0.105707 -0.122524 
0.0418772 0.410449 0.11855 
0.0392691 -0.291602 -0.137924 
0.285392 -0.0738479 -0.00799019 
0.267872 0.0238098 -0.0919234 
0.185065 0.281065 -0.0280027 
0.149628 0.325863 -0.14653 
0.328117 -0.341761 0.0941818 
0.257893 -0.177637 -0.0658725 
0.416288 0.187219 -0.0182528 
0.409614 0.234831 -0.105919 
0.437403 0.276159 0.0102232 
-0.336366 -0.347611 0.102839 
-0.338777 -0.225942 -0.233953 
-0.447883 -0.0601339 -0.0159334 
-0.449996 0.132755 0.07522 
-0.279884 0.366041 0.00794914 
-0.061591 -0.18088 -0.126712 
-0.177795 -0.232951 -0.0103632 
-0.233921 0.00262811 -0.0339145 
-0.286918 0.217631 -0.00173878 
-0.204665 0.411506 0.0987332 
0.210144 -0.0591201 -0.0931377 
0.0019051 -0.080945 -0.15778 
-0.137007 -0.0333648 0.130988 
-0.0226923 0.242996 0.0502748 
-0.0714216 0.350567 0.0867948 
0.314402 -0.441599 0.077898 
0.328565 -0.210538 0.112409 
0.17802 0.0396571 -0.121786 
0.263732 0.288573 0.0180756 
0.240292 0.450002 -0.003902 
0.44768 -0.165633 0.0167345 
0.315843 0.362462 0.00256134 
0.4498 0.0881622 0.0112619 
0.432031 0.161278 0.0771129 
0.385133 0.36757 0.071686 
-0.402483 -0.396015 0.14843 
-0.436017 -0.264752 0.0702903 
-0.196227 -0.0730747 -0.0673741 
-0.444525 0.269654 -0.0389538 
-0.388627 0.353066 0.0245998 
-0.210674 -0.392981 0.106408 
-0.247528 -0.00278654 0.128088 
-0.0420318 -0.0125865 -0.0761478 
-0.283034 0.140916 -0.0822042 
-0.285084 0.39945 0.170238 
0.187736 -0.429162 0.0697788 
0.119514 -0.133465 -0.125338 
0.0327378 0.0521289 -0.114111 
-0.0890186 0.107321 0.0784948 
-0.0409811 0.411597 0.167001 
0.307302 -0.414114 0.173989 
0.205422 -0.116079 0.00249532 
0.0964185 0.191662 0.0153739 
0.270256 0.169863 0.158244 
0.156496 0.417198 -0.0480031 
0.414329 -0.450023 0.0753395 
0.332027 -0.161152 0.0347548 
-0.21024 0.133215 0.054211 
0.365522 0.207494 0.135764 
0.317478 0.450729 0.0688207 
-0.441892 -0.450725 0.183399 
-0.283622 0.0511938 0.0482131 
-0.39569 0.00121052 0.0465775 
-0.420079 0.158056 -0.0167791 
-0.450006 0.417444 0.0933807 
-0.296729 -0.450114 0.0763305 
-0.237933 -0.153352 0.073204 
-0.173504 0.0327288 0.0398569 
-0.348176 0.133733 0.0816014 
-0.432168 0.405187 0.201035 
0.238776 -0.252814 0.126709 
-0.0455625 -0.145313 -0.0496603 
-0.0899488 0.06223 -0.00656509 
0.022936 0.331105 0.0324768 
0.0131517 0.315042 0.130833 
0.194349 -0.247011 -0.0532669 
0.214868 -0.297212 0.036123 
0.193447 -0.0145728 -0.015984 
0.192534 0.170438 0.0160628 
0.0797161 0.425724 0.0154659 
0.424212 -0.359085 0.115691 
0.449972 -0.153034 0.115887 
0.347506 0.00754071 0.0286853 
0.274034 0.165847 0.0691798 
0.450534 0.353925 0.125859 
-0.31103 -0.310879 0.166643 
-0.202274 -0.0608183 0.060383 
-0.439354 -0.00772741 0.152065 
-0.37063 0.221914 0.0529508 
-0.363826 0.448659 0.13335 
-0.180251 -0.244086 0.090929 
-0.203537 -0.188471 0.16028 
-0.0867586 -0.0236408 0.0446503 
-0.316265 0.313359 0.0845372 
-0.220591 0.23734 0.0707417 
-0.0475219 -0.11459 0.0495592 
-0.0145915 -0.252254 -0.0660326 
0.0174166 0.0027289 0.00279071 
0.236365 -0.154946 0.0823715 
0.0130338 0.448624 0.228024 
0.209527 -0.386536 0.17346 
0.444138 -0.301363 0.186106 
0.309468 0.0622293 0.107851 
0.177559 0.247162 0.0740279 
0.182793 0.366023 0.0337902 
0.401443 -0.406291 0.214431 
0.449598 -0.203047 0.202468 
0.325397 -0.0720095 0.0850985 
0.400699 0.0921773 0.142252 
0.231134 0.424515 0.106989 
VERTICES 500 1000
1 0
1 1
1 2
1 3
1 4
1 5
1 6
1 7
1 8
1 9
1 10
1 11
1 12
1 13
1 14
1 15
1 16
1 17
1 18
1 19
1 20
1 21
1 22
1 23
1 24
1 25
1 26
1 27
1 28
1 29
1 30
1 31
1 32
1 33
1 34
1 35
1 36
1 37
1 38
1 39
1 40
1 41
1 42
1 43
1 44
1 45
1 46
1 47
1 48
1 49
1 50
1 51
1 52
1 53
1 54
1 55
1 56
1 57
1 58
1 59
1 60
1 61
1 62
1 63
1 64
1 65
1 66
1 67
1 68
1 69
1 70
1 71
1 72
1 73
1 74
1 75
1 76
1 77
1 78
1 79
1 80
1 81
1 82
1 83
1 84
1 85
1 86
1 87
1 88
1 89
1 90
1 91
1 92
1 93
1 94
1 95
1 96
1 97
1 98
1 99
1 100
1 101
1 102
1 103
1 104
1 105
1 106
1 107
1 108
1 109
1 110
1 111
1 112
1 113
1 114
1 115
1 116
1 117
1 118
1 119
1 120
1 121
1 122
1 123
1 124
1 125
1 126
1 127
1 128
1 129
1 130
1 131
1 132
1 133
1 134
1 135
1 136
1 137
1 138
1 139
1 140
1 141
1 142
1 143
1 144
1 145
1 146
1 147
1 148
1 149
1 150
1 151
1 152
1 153
1 154
1 155
1 156
1 157
1 158
1 159
1 160
1 161
1 162
1 163
1 164
1 165
1 166
1 167
1 168
1 169
1 170
1 171
1 172
1 173
1 174
1 175
1 176
1 177
1 178
1 179
1 180
1 181
1 182
1 183
1 184
1 185
1 186
1 187
1 188
1 189
1 190
1 191
1 192
1 193
1 194
1 195
1 196
1 197
1 198
1 199
1 200
1 201
1 202
1 203
1 204
1 205
1 206
1 207
1 208
1 209
1 210
1 211
1 212
1 213
1 214
1 215
1 216
1 217
1 218
1 219
1 220
1 221
1 222
1 223
1 224
1 225
1 226
1 227
1 228
1 229
1 230
1 231
1 232
1 233
1 234
1 235
1 236
1 237
1 238
1 239
1 240
1 241
1 242
1 243
1 244
1 245
1 246
1 247
1 248
1 249
1 250
1 251
1 252
1 253
1 254
1 255
1 256
1 257
1 258
1 259
1 260
1 261
1 262
1 263
1 264
1 265
1 266
1 267
1 268
1 269
1 270
1 271
1 272
1 273
1 274
1 275
1 276
1 277
1 278
1 279
1 280
1 281
1 282
1 283
1 284
1 285
1 286
1 287
1 288
1 289
1 290
1 291
1 292
1 293
1 294
1 295
1 296
1 297
1 298
1 299
1 300
1 301
1 302
1 303
1 304
1 305
1 306
1 307
1 308
1 309
1 310
1 311
1 312
1 313
1 314
1 315
1 316
1 317
1 318
1 319
1 320
1 321
1 322
1 323
1 324
1 325
1 326
1 327
1 328
1 329
1 330
1 331
1 332
1 333
1 334
1 335
1 336
1 337
1 338
1 339
1 340
1 341
1 342
1 343
1 344
1 345
1 346
1 347
1 348
1 349
1 350
1 351
1 352
1 353
1 354
1 355
1 356
1 357
1 358
1 359
1 360
1 361
1 362
1 363
1 364
1 365
1 366
1 367
1 368
1 369
1 370
1 371
1 372
1 373
1 374
1 375
1 376
1 377
1 378
1 379
1 380
1 381
1 382
1 383
1 384
1 385
1 386
1 387
1 388
1 389
1 390
1 391
1 392
1 393
1 394
1 395
1 396
1 397
1 398
1 399
1 400
1 401
1 402
1 403
1 404
1 405
1 406
1 407
1 408
1 409
1 410
1 411
1 412
1 413
1 414
1 415
1 416
1 417
1 418
1 419
1 420
1 421
1 422
1 423
1 424
1 425
1 426
1 427
1 428
1 429
1 430
1 431
1 432
1 433
1 434
1 435
1 436
1 437
1 438
1 439
1 440
1 441
1 442
1 443
1 444
1 445
1 446
1 447
1 448
1 449
1 450
1 451
1 452
1 453
1 454
1 455
1 456
1 457
1 458
1 459
1 460
1 461
1 462
1 463
1 464
1 465
1 466
1 467
1 468
1 469
1 470
1 471
1 472
1 473
1 474
1 475
1 476
1 477
1 478
1 479
1 480
1 481
1 482
1 483
1 484
1 485
1 486
1 487
1 488
1 489
1 490
1 491
1 492
1 493
1 494
1 495
1 496
1 497
1 498
1 499
POINT_DATA 500
SCALARS id int 1
LOOKUP_TABLE default
0
1
2
3
4
5
6
7
8
9
10
11
12
13
14
15
16
17
18
19
20
21
22
23
24
25
26
27
28
29
30
31
32
33
34
35
36
37
38
39
40
41
42
43
44
45
46
47
48
49
50
51
52
53
54
55
56
57
58
59
60
61
62
63
64
65
66
67
68
69
70
71
72
73
74
75
76
77
78
79
80
81
82
83
84
85
86
87
88
89
90
91
92
93
94
95
96
97
98
99
100
101
102
103
104
105
106
107
108
109
110
111
112
113
114
115
116
117
118
119
120
121
122
123
124
125
126
127
128
129
130
131
132
133
134
135
136
137
138
139
140
141
142
143
144
145
146
147
148
149
150
151
152
153
154
155
156
157
158
159
160
161
162
163
164
165
166
167
168
169
170
171
172
173
174
175
176
177
178
179
180
181
182
183
184
185
186
187
188
189
190
191
192
193
194
195
196
197
198
199
200
201
202
203
204
205
206
207
208
209
210
211
212
213
214
215
216
217
218
219
220
221
222
223
224
225
226
227
228
229
230
231
232
233
234
235
236
237
238
239
240
241
242
243
244
245
246
247
248
249
250
251
252
253
254
255
256
257
258
259
260
261
262
263
264
265
266
267
268
269
270
271
272
273
274
275
276
277
278
279
280
281
282
283
284
285
286
287
288
289
290
291
292
293
294
295
296
297
298
299
300
301
302
303
304
305
306
307
308
309
310
311
312
313
314
315
316
317
318
319
320
321
322
323
324
325
326
327
328
329
330
331
332
333
334
335
336
337
338
339
340
341
342
343
344
345
346
347
348
349
350
351
352
353
354
355
356
357
358
359
360
361
362
363
364
365
366
367
368
369
370
371
372
373
374
375
376
377
378
379
380
381
382
383
384
385
386
387
388
389
390
391
392
393
394
395
396
397
398
399
400
401
402
403
404
405
406
407
408
409
410
411
412
413
414
415
416
417
418
419
420
421
422
423
424
425
426
427
428
429
430
431
432
433
434
435
436
437
438
439
440
441
442
443
444
445
446
447
448
449
450
451
452
453
454
455
456
457
458
459
460
461
462
463
464
465
466
467
468
469
470
471
472
473
474
475
476
477
478
479
480
481
482
483
484
485
486
487
488
489
490
491
492
493
494
495
496
497
498
499
SCALARS type int 1
LOOKUP_TABLE default
0
0
0
0
0
0
0
0
0
0
0
0
0
0
0
0
0
0
0
0
0
0
0
0
0
0
0
0
0
0
0
0
0
0
0
0
0
0
0
0
0
0
0
0
0
0
0
0
0
0
0
0
0
0
0
0
0
0
0
0
0
0
0
0
0
0
0
0
0
0
0
0
0
0
0
0
0
0
0
0
0
0
0
0
0
0
0
0
0
0
0
0
0
0
0
0
0
0
0
0
0
0
0
0
0
0
0
0
0
0
0
0
0
0
0
0
0
0
0
0
0
0
0
0
0
0
0
0
0
0
0
0
0
0
0
0
0
0
0
0
0
0
0
0
0
0
0
0
0
0
0
0
0
0
0
0
0
0
0
0
0
0
0
0
0
0
0
0
0
0
0
0
0
0
0
0
0
0
0
0
0
0
0
0
0
0
0
0
0
0
0
0
0
0
0
0
0
0
0
0
0
0
0
0
0
0
0
0
0
0
0
0
0
0
0
0
0
0
0
0
0
0
0
0
0
0
0
0
0
0
0
0
0
0
0
0
0
0
0
0
0
0
0
0
0
0
0
0
0
0
0
0
0
0
0
0
0
0
0
0
0
0
0
0
0
0
0
0
0
0
0
0
0
0
0
0
0
0
0
0
0
0
0
0
0
0
0
0
0
0
0
0
0
0
0
0
0
0
0
0
0
0
0
0
0
0
0
0
0
0
0
0
0
0
0
0
0
0
0
0
0
0
0
0
0
0
0
0
0
0
0
0
0
0
0
0
0
0
0
0
0
0
0
0
0
0
0
0
0
0
0
0
0
0
0
0
0
0
0
0
0
0
0
0
0
0
0
0
0
0
0
0
0
0
0
0
0
0
0
0
0
0
0
0
0
0
0
0
0
0
0
0
0
0
0
0
0
0
0
0
0
0
0
0
0
0
0
0
0
0
0
0
0
0
0
0
0
0
0
0
0
0
0
0
0
0
0
0
0
0
0
0
0
0
0
0
0
0
0
0
0
0
0
0
0
0
0
0
0
0
0
0
0
0
0
0
0
0
0
0
0
0
0
0
0
0
0
0
0
0
0
0
0
0
0
0
0
0
0
0
0
0
0
0
0
0
0
0
0
0
0
0
0
0
0
0
0
0
0
0
SCALARS damp_viscous double 1
LOOKUP_TABLE default
0
0
0
0
0
0
0
0
0
0
0
0
0
0
0
0
0
0
0
0
0
0
0
0
0
0
0
0
0
0
0
0
0
0
0
0
0
0
0
0
0
0
0
0
0
0
0
0
0
0
0
0
0
0
0
0
0
0
0
0
0
0
0
0
0
0
0
0
0
0
0
0
0
0
0
0
0
0
0
0
0
0
0
0
0
0
0
0
0
0
0
0
0
0
0
0
0
0
0
0
0
0
0
0
0
0
0
0
0
0
0
0
0
0
0
0
0
0
0
0
0
0
0
0
0
0
0
0
0
0
0
0
0
0
0
0
0
0
0
0
0
0
0
0
0
0
0
0
0
0
0
0
0
0
0
0
0
0
0
0
0
0
0
0
0
0
0
0
0
0
0
0
0
0
0
0
0
0
0
0
0
0
0
0
0
0
0
0
0
0
0
0
0
0
0
0
0
0
0
0
0
0
0
0
0
0
0
0
0
0
0
0
0
0
0
0
0
0
0
0
0
0
0
0
0
0
0
0
0
0
0
0
0
0
0
0
0
0
0
0
0
0
0
0
0
0
0
0
0
0
0
0
0
0
0
0
0
0
0
0
0
0
0
0
0
0
0
0
0
0
0
0
0
0
0
0
0
0
0
0
0
0
0
0
0
0
0
0
0
0
0
0
0
0
0
0
0
0
0
0
0
0
0
0
0
0
0
0
0
0
0
0
0
0
0
0
0
0
0
0
0
0
0
0
0
0
0
0
0
0
0
0
0
0
0
0
0
0
0
0
0
0
0
0
0
0
0
0
0
0
0
0
0
0
0
0
0
0
0
0
0
0
0
0
0
0
0
0
0
0
0
0
0
0
0
0
0
0
0
0
0
0
0
0
0
0
0
0
0
0
0
0
0
0
0
0
0
0
0
0
0
0
0
0
0
0
0
0
0
0
0
0
0
0
0
0
0
0
0
0
0
0
0
0
0
0
0
0
0
0
0
0
0
0
0
0
0
0
0
0
0
0
0
0
0
0
0
0
0
0
0
0
0
0
0
0
0
0
0
0
0
0
0
0
0
0
0
0
0
0
0
0
0
0
0
0
0
0
0
0
0
0
0
0
0
0
0
0
0
0
0
0
0
0
0
0
0
0
0
0
SCALARS damp_numerical double 1
LOOKUP_TABLE default
0.5
0.5
0.5
0.5
0.5
0.5
0.5
0.5
0.5
0.5
0.5
0.5
0.5
0.5
0.5
0.5
0.5
0.5
0.5
0.5
0.5
0.5
0.5
0.5
0.5
0.5
0.5
0.5
0.5
0.5
0.5
0.5
0.5
0.5
0.5
0.5
0.5
0.5
0.5
0.5
0.5
0.5
0.5
0.5
0.5
0.5
0.5
0.5
0.5
0.5
0.5
0.5
0.5
0.5
0.5
0.5
0.5
0.5
0.5
0.5
0.5
0.5
0.5
0.5
0.5
0.5
0.5
0.5
0.5
0.5
0.5
0.5
0.5
0.5
0.5
0.5
0.5
0.5
0.5
0.5
0.5
0.5
0.5
0.5
0.5
0.5
0.5
0.5
0.5
0.5
0.5
0.5
0.5
0.5
0.5
0.5
0.5
0.5
0.5
0.5
0.5
0.5
0.5
0.5
0.5
0.5
0.5
0.5
0.5
0.5
0.5
0.5
0.5
0.5
0.5
0.5
0.5
0.5
0.5
0.5
0.5
0.5
0.5
0.5
0.5
0.5
0.5
0.5
0.5
0.5
0.5
0.5
0.5
0.5
0.5
0.5
0.5
0.5
0.5
0.5
0.5
0.5
0.5
0.5
0.5
0.5
0.5
0.5
0.5
0.5
0.5
0.5
0.5
0.5
0.5
0.5
0.5
0.5
0.5
0.5
0.5
0.5
0.5
0.5
0.5
0.5
0.5
0.5
0.5
0.5
0.5
0.5
0.5
0.5
0.5
0.5
0.5
0.5
0.5
0.5
0.5
0.5
0.5
0.5
0.5
0.5
0.5
0.5
0.5
0.5
0.5
0.5
0.5
0.5
0.5
0.5
0.5
0.5
0.5
0.5
0.5
0.5
0.5
0.5
0.5
0.5
0.5
0.5
0.5
0.5
0.5
0.5
0.5
0.5
0.5
0.5
0.5
0.5
0.5
0.5
0.5
0.5
0.5
0.5
0.5
0.5
0.5
0.5
0.5
0.5
0.5
0.5
0.5
0.5
0.5
0.5
0.5
0.5
0.5
0.5
0.5
0.5
0.5
0.5
0.5
0.5
0.5
0.5
0.5
0.5
0.5
0.5
0.5
0.5
0.5
0.5
0.5
0.5
0.5
0.5
0.5
0.5
0.5
0.5
0.5
0.5
0.5
0.5
0.5
0.5
0.5
0.5
0.5
0.5
0.5
0.5
0.5
0.5
0.5
0.5
0.5
0.5
0.5
0.5
0.5
0.5
0.5
0.5
0.5
0.5
0.5
0.5
0.5
0.5
0.5
0.5
0.5
0.5
0.5
0.5
0.5
0.5
0.5
0.5
0.5
0.5
0.5
0.5
0.5
0.5
0.5
0.5
0.5
0.5
0.5
0.5
0.5
0.5
0.5
0.5
0.5
0.5
0.5
0.5
0.5
0.5
0.5
0.5
0.5
0.5
0.5
0.5
0.5
0.5
0.5
0.5
0.5
0.5
0.5
0.5
0.5
0.5
0.5
0.5
0.5
0.5
0.5
0.5
0.5
0.5
0.5
0.5
0.5
0.5
0.5
0.5
0.5
0.5
0.5
0.5
0.5
0.5
0.5
0.5
0.5
0.5
0.5
0.5
0.5
0.5
0.5
0.5
0.5
0.5
0.5
0.5
0.5
0.5
0.5
0.5
0.5
0.5
0.5
0.5
0.5
0.5
0.5
0.5
0.5
0.5
0.5
0.5
0.5
0.5
0.5
0.5
0.5
0.5
0.5
0.5
0.5
0.5
0.5
0.5
0.5
0.5
0.5
0.5
0.5
0.5
0.5
0.5
0.5
0.5
0.5
0.5
0.5
0.5
0.5
0.5
0.5
0.5
0.5
0.5
0.5
0.5
0.5
0.5
0.5
0.5
0.5
0.5
0.5
0.5
0.5
0.5
0.5
0.5
0.5
0.5
0.5
0.5
0.5
0.5
0.5
0.5
0.5
0.5
0.5
0.5
0.5
0.5
0.5
0.5
0.5
0.5
0.5
0.5
0.5
0.5
0.5
0.5
0.5
0.5
0.5
0.5
0.5
0.5
0.5
0.5
0.5
0.5
0.5
0.5
0.5
0.5
0.5
0.5
0.5
0.5
0.5
0.5
0.5
0.5
0.5
0.5
0.5
0.5
0.5
0.5
0.5
0.5
0.5
0.5
0.5
0.5
0.5
0.5
0.5
0.5
SCALARS quat double 4
LOOKUP_TABLE default
0.962949 0.0904227 -0.0544879 0.248162 
0.784954 0.148778 0.601359 0.00894383 
0.989196 0.0962143 -0.0507464 -0.0982815 
-0.371488 -0.473193 -0.55804 -0.571556 
0.0795543 0.705632 -0.374892 0.595995 
0.802945 -0.273701 -0.201164 0.489797 
0.110578 -0.306189 -0.314787 0.891588 
0.878375 0.0509113 0.339748 0.33232 
-0.110985 0.422208 0.899603 -0.0116919 
0.0915643 0.0911308 -0.00524354 0.991607 
0.922247 -0.144328 -0.0951811 0.34579 
0.168697 -0.911945 -0.239844 -0.287005 
0.084618 0.403996 -0.0472391 0.909613 
0.592997 0.713876 0.357984 -0.10288 
0.339132 0.816085 -0.183316 0.43057 
0.996066 0.0807544 -0.0364156 -0.00246815 
0.640674 0.0524792 -0.0352947 0.765204 
0.98863 0.080934 -0.0243187 0.124371 
0.973144 0.112329 -0.0905512 0.179369 
-0.768562 0.163822 0.610758 0.0972118 
0.836646 0.127764 0.50879 -0.157584 
-0.307124 0.850314 -0.288924 0.314901 
0.775591 -0.284669 -0.473819 -0.304823 
0.543802 0.742898 -0.372517 -0.11667 
0.984055 0.104015 -0.0984317 0.105486 
0.932113 0.155613 -0.171058 0.278728 
-0.589804 0.716209 -0.312458 0.203828 
0.976651 0.156983 -0.114044 -0.0922141 
0.684753 -0.414357 -0.434498 0.413077 
-0.160523 0.389557 -0.334957 0.842782 
0.736108 0.350556 0.505706 0.281987 
0.400264 -0.663077 -0.158602 -0.612343 
0.134959 -0.0472143 -0.948528 0.28258 
0.173945 0.124284 0.073465 0.974115 
0.550464 0.735801 0.183081 -0.349382 
0.408432 -0.144398 0.049606 0.899929 
-0.296462 0.505436 -0.493206 0.642956 
0.246516 0.327847 0.280931 0.867654 
0.728734 -0.63022 -0.256438 0.0775266 
0.578794 0.643451 -0.105537 -0.489725 
0.945902 0.143758 -0.158813 0.243683 
0.701059 0.192013 -0.106377 0.678477 
0.977212 -0.206897 -0.0463157 0.0102514 
0.00960579 0.81965 0.551545 -0.154528 
0.729483 -0.575058 -0.314549 -0.195505 
0.337548 0.274976 -0.681267 0.588494 
0.549011 -0.180438 0.145409 -0.803048 
-0.951795 0.137113 -0.178589 0.208308 
0.411738 0.776022 -0.384484 0.283607 
-0.842349 0.508428 0.0990292 -0.148802 
0.927651 0.295261 -0.204531 -0.102236 
0.320943 -0.116304 0.888388 -0.306977 
0.82273 -0.0816275 0.562523 -0.00449461 
-0.663883 0.425607 -0.61442 -0.0246278 
-0.502948 0.492404 0.483223 -0.52065 
-0.610896 0.475759 0.476315 -0.416634 
0.124323 0.21767 0.964612 -0.0817742 
0.0805377 -0.0495121 -0.844554 -0.527059 
-0.187101 0.0394615 0.783165 -0.591683 
0.349924 -0.911185 -0.216026 0.0250409 
-0.445341 0.231793 0.661167 -0.557495 
-0.861576 -0.0767237 0.00774762 0.501737 
-0.280704 -0.714219 0.130954 0.627652 
0.10315 0.23805 0.957396 0.126829 
-0.10946 0.0299685 0.991748 -0.0596312 
0.914828 0.246871 -0.283403 -0.147739 
-0.12908 -0.95347 -0.18367 0.201245 
0.961657 -0.163176 -0.128958 0.178771 
0.894282 0.0140796 0.410666 -0.17724 
-0.927147 -0.0895798 -0.109069 -0.347099 
0.638281 -0.403432 -0.282892 0.591449 
-0.565182 -0.74581 -0.34249 -0.0838889 
0.358816 0.366402 0.0370916 -0.857686 
-0.58381 0.745912 -0.294976 -0.125583 
0.944168 -0.245282 0.0220475 -0.218856 
0.960371 0.115067 -0.11711 -0.225239 
0.552951 -0.0933648 -0.635006 0.531314 
0.881531 -0.266435 0.371271 -0.118635 
-0.579481 -0.204723 -0.123496 0.779127 
-0.542912 0.179032 -0.10527 -0.813703 
0.891067 0.25368 0.0238645 -0.375601 
-0.341303 0.87625 0.0359365 0.33824 
0.933676 -0.128707 0.310409 -0.123817 
-0.226672 0.826724 -0.278037 0.433408 
0.969961 -0.219872 0.00643915 -0.103878 
0.754577 -0.47873 -0.413189 0.175232 
-0.170697 -0.331439 0.0994557 -0.922561 
0.763384 0.431902 0.266213 -0.399796 
0.320442 0.926273 0.0743821 -0.183857 
-0.178806 0.556399 -0.659774 0.472385 
0.868923 -0.222872 0.372063 -0.238474 
-0.815151 0.361328 -0.452002 0.0257704 
0.882745 -0.0310268 -0.396443 0.250262 
0.842161 -0.370157 0.391252 0.0258851 
0.792659 0.0261081 0.361245 -0.490421 
0.272227 -0.535174 -0.411521 -0.685661 
0.291923 -0.791164 0.479508 0.24272 
0.230965 -0.225436 -0.717946 0.616755 
-0.602805 0.589229 0.162575 -0.512839 
0.982261 -0.114005 -0.0185184 -0.147724 
0.841139 -0.0818937 -0.10466 -0.524238 
0.306742 0.525907 0.737971 0.291082 
-0.0219789 0.438392 -0.896411 0.0614542 
-0.618917 -0.592234 -0.512203 -0.0620291 
-0.216833 -0.084695 -0.394416 0.888958 
0.94298 -0.15163 0.250453 0.158334 
-0.773401 0.486764 0.250857 -0.319346 
0.120408 0.742564 0.657121 -0.0478851 
0.821667 0.443876 -0.112238 -0.339471 
0.0105629 0.211283 -0.974938 0.068881 
0.276104 -0.588405 -0.287791 0.703365 
-0.397 -0.303307 0.669397 0.549822 
-0.0775786 -0.377216 0.25114 -0.888042 
0.818203 -0.262708 0.47701 0.184364 
-0.235284 0.0656157 0.0892088 0.965597 
0.902759 -0.357868 0.238624 0.00379529 
0.0102238 -0.80363 0.593535 0.0423139 
0.44956 -0.0768236 -0.398623 0.795672 
0.885175 0.0906375 0.085138 0.448332 
0.238153 0.157903 -0.822077 0.492482 
-0.0231606 0.0930407 0.458511 -0.883502 
-0.12649 -0.269093 -0.729284 0.616225 
0.330773 -0.459646 -0.420007 -0.70916 
-0.931288 -0.222296 -0.187525 0.219366 
0.75569 -0.613959 0.00309803 0.227986 
0.776081 0.297177 -0.53263 -0.160281 
0.417944 0.633298 0.55847 -0.335214 
0.515917 0.275626 0.193293 -0.787717 
-0.46419 0.262676 0.828581 -0.170244 
0.444615 -0.446446 0.704802 0.325972 
-0.0177567 0.503129 0.729564 -0.462906 
-0.993931 -0.0665605 -0.05031 0.0716961 
-0.0790196 -0.592431 -0.801291 -0.0267339 
0.210143 0.209201 -0.94871 0.109659 
0.121507 -0.910962 0.216873 0.329165 
0.137187 -0.0547855 0.817238 0.557046 
0.272262 0.742545 0.220937 0.570689 
-0.675939 -0.728332 0.0587037 -0.0958762 
0.312303 0.911842 -0.176204 -0.199906 
-0.052401 0.814565 -0.577468 0.0163981 
-0.510163 0.0709884 -0.822618 0.240819 
0.437618 -0.264157 0.292619 0.808137 
-0.0987117 0.500302 -0.115817 0.852373 
0.934798 -0.276704 -0.184154 0.125199 
0.0180721 -0.507767 -0.780307 -0.364647 
-0.466114 -0.813768 0.243351 0.24759 
0.727838 -0.530185 0.340215 -0.270942 