# vtk DataFile Version 2.0
Generated by NetDEM
ASCII 
DATASET POLYDATA
POINTS 100 double
-0.422573 -0.403791 -0.464366 
-0.403333 -0.203333 -0.450007 
-0.413202 -0.0045412 -0.462213 
-0.40295 0.19705 -0.450007 
-0.402763 0.397237 -0.450007 
-0.20821 -0.416622 -0.440441 
-0.203538 -0.203538 -0.450007 
-0.203218 -0.00321788 -0.450007 
-0.183774 0.197362 -0.45453 
-0.211755 0.388261 -0.448745 
-0.0181542 -0.411884 -0.447436 
-0.00366947 -0.203669 -0.450007 
-0.00360232 -0.00360232 -0.450007 
0.00681098 0.194326 -0.444619 
-0.015174 0.393973 -0.448748 
0.185477 -0.402521 -0.46134 
0.176712 -0.213646 -0.46183 
0.180255 -0.00575957 -0.455491 
0.188007 0.205406 -0.446336 
0.196913 0.396913 -0.450007 
0.396713 -0.403287 -0.450007 
0.39661 -0.20339 -0.450007 
0.396488 -0.00351175 -0.450007 
0.396508 0.196508 -0.450007 
0.402238 0.395398 -0.442986 
-0.403633 -0.403633 -0.289486 
-0.403333 -0.203333 -0.289185 
-0.403998 -0.00399844 -0.289851 
-0.40295 0.19705 -0.288803 
-0.402763 0.397237 -0.288616 
-0.203099 -0.403099 -0.288952 
-0.203538 -0.203538 -0.289391 
-0.203218 -0.00321788 -0.289071 
-0.203937 0.196063 -0.28979 
-0.203347 0.396653 -0.2892 
-0.00292062 -0.402921 -0.288773 
-0.00366947 -0.203669 -0.289522 
-0.00360232 -0.00360232 -0.289455 
-0.00217008 0.19783 -0.288023 
-0.00266816 0.397332 -0.288521 
0.197698 -0.402302 -0.288155 
0.196222 -0.203778 -0.289631 
0.197391 -0.00260897 -0.288462 
0.197198 0.197198 -0.288655 
0.196913 0.396913 -0.28894 
0.396713 -0.403287 -0.28914 
0.39661 -0.20339 -0.289243 
0.396488 -0.00351175 -0.289365 
0.396508 0.196508 -0.289345 
0.396534 0.396534 -0.289319 
-0.403633 -0.403633 0.0135436 
-0.403333 -0.203333 0.0138442 
-0.403998 -0.00399844 0.0131783 
-0.40295 0.19705 0.0142263 
-0.402763 0.397237 0.0144135 
-0.203099 -0.403099 0.0140778 
-0.203538 -0.203538 0.0136385 
-0.203218 -0.00321788 0.0139589 
-0.203937 0.196063 0.0132394 
-0.203347 0.396653 0.0138298 
-0.00292062 -0.402921 0.0142561 
-0.00366947 -0.203669 0.0135073 
-0.00360232 -0.00360232 0.0135744 
-0.00217008 0.19783 0.0150067 
-0.00266816 0.397332 0.0145086 
0.197698 -0.402302 0.0148746 
0.196222 -0.203778 0.0133985 
0.197391 -0.00260897 0.0145678 
0.197198 0.197198 0.0143745 
0.196913 0.396913 0.0140898 
0.396713 -0.403287 0.0138893 
0.39661 -0.20339 0.0137863 
0.396488 -0.00351175 0.013665 
0.396508 0.196508 0.0136846 
0.396534 0.396534 0.0137103 
-0.403633 -0.403633 0.267523 
-0.403333 -0.203333 0.267824 
-0.403998 -0.00399844 0.267158 
-0.40295 0.19705 0.268206 
-0.402763 0.397237 0.268393 
-0.203099 -0.403099 0.268057 
-0.203538 -0.203538 0.267618 
-0.203218 -0.00321788 0.267938 
-0.203937 0.196063 0.267219 
-0.203347 0.396653 0.267809 
-0.00292062 -0.402921 0.268236 
-0.00366947 -0.203669 0.267487 
-0.00360232 -0.00360232 0.267554 
-0.00217008 0.19783 0.268986 
-0.00266816 0.397332 0.268488 
0.197698 -0.402302 0.268854 
0.196222 -0.203778 0.267378 
0.197391 -0.00260897 0.268547 
0.197198 0.197198 0.268354 
0.196913 0.396913 0.268069 
0.396713 -0.403287 0.267869 
0.39661 -0.20339 0.267766 
0.396488 -0.00351175 0.267645 
0.396508 0.196508 0.267664 
0.396534 0.396534 0.26769 
VERTICES 100 200
1 0
1 1
1 2
1 3
1 4
1 5
1 6
1 7
1 8
1 9
1 10
1 11
1 12
1 13
1 14
1 15
1 16
1 17
1 18
1 19
1 20
1 21
1 22
1 23
1 24
1 25
1 26
1 27
1 28
1 29
1 30
1 31
1 32
1 33
1 34
1 35
1 36
1 37
1 38
1 39
1 40
1 41
1 42
1 43
1 44
1 45
1 46
1 47
1 48
1 49
1 50
1 51
1 52
1 53
1 54
1 55
1 56
1 57
1 58
1 59
1 60
1 61
1 62
1 63
1 64
1 65
1 66
1 67
1 68
1 69
1 70
1 71
1 72
1 73
1 74
1 75
1 76
1 77
1 78
1 79
1 80
1 81
1 82
1 83
1 84
1 85
1 86
1 87
1 88
1 89
1 90
1 91
1 92
1 93
1 94
1 95
1 96
1 97
1 98
1 99
POINT_DATA 100
SCALARS id int 1
LOOKUP_TABLE default
0
1
2
3
4
5
6
7
8
9
10
11
12
13
14
15
16
17
18
19
20
21
22
23
24
25
26
27
28
29
30
31
32
33
34
35
36
37
38
39
40
41
42
43
44
45
46
47
48
49
50
51
52
53
54
55
56
57
58
59
60
61
62
63
64
65
66
67
68
69
70
71
72
73
74
75
76
77
78
79
80
81
82
83
84
85
86
87
88
89
90
91
92
93
94
95
96
97
98
99
SCALARS type int 1
LOOKUP_TABLE default
0
0
0
0
0
0
0
0
0
0
0
0
0
0
0
0
0
0
0
0
0
0
0
0
0
0
0
0
0
0
0
0
0
0
0
0
0
0
0
0
0
0
0
0
0
0
0
0
0
0
0
0
0
0
0
0
0
0
0
0
0
0
0
0
0
0
0
0
0
0
0
0
0
0
0
0
0
0
0
0
0
0
0
0
0
0
0
0
0
0
0
0
0
0
0
0
0
0
0
0
SCALARS damp_viscous double 1
LOOKUP_TABLE default
0
0
0
0
0
0
0
0
0
0
0
0
0
0
0
0
0
0
0
0
0
0
0
0
0
0
0
0
0
0
0
0
0
0
0
0
0
0
0
0
0
0
0
0
0
0
0
0
0
0
0
0
0
0
0
0
0
0
0
0
0
0
0
0
0
0
0
0
0
0
0
0
0
0
0
0
0
0
0
0
0
0
0
0
0
0
0
0
0
0
0
0
0
0
0
0
0
0
0
0
SCALARS damp_numerical double 1
LOOKUP_TABLE default
0.5
0.5
0.5
0.5
0.5
0.5
0.5
0.5
0.5
0.5
0.5
0.5
0.5
0.5
0.5
0.5
0.5
0.5
0.5
0.5
0.5
0.5
0.5
0.5
0.5
0.5
0.5
0.5
0.5
0.5
0.5
0.5
0.5
0.5
0.5
0.5
0.5
0.5
0.5
0.5
0.5
0.5
0.5
0.5
0.5
0.5
0.5
0.5
0.5
0.5
0.5
0.5
0.5
0.5
0.5
0.5
0.5
0.5
0.5
0.5
0.5
0.5
0.5
0.5
0.5
0.5
0.5
0.5
0.5
0.5
0.5
0.5
0.5
0.5
0.5
0.5
0.5
0.5
0.5
0.5
0.5
0.5
0.5
0.5
0.5
0.5
0.5
0.5
0.5
0.5
0.5
0.5
0.5
0.5
0.5
0.5
0.5
0.5
0.5
0.5
SCALARS quat double 4
LOOKUP_TABLE default
0.9853 0.0982813 -0.106054 0.0909814 
0.422936 0.19358 0.881935 0.076436 
0.993723 0.017369 -0.110414 0.0047569 
0.933896 0.135683 0.0158348 0.330419 
0.218235 0.323535 0.831742 0.394847 
0.837955 0.0903859 0.417828 0.339238 
0.259029 0.245797 0.696789 0.622072 
0.947128 0.0660144 0.273627 0.154011 
0.0286966 0.856493 0.461768 0.228837 
0.242637 0.410026 0.325031 0.816922 
0.923117 0.233084 0.177939 0.248727 
0.895604 0.01201 0.325206 0.3033 
0.115508 0.577388 0.641376 0.491851 
0.796686 0.512487 0.319522 0.0235493 
0.826838 0.367943 0.0769491 0.418372 
0.986758 0.0711126 -0.136855 0.0502299 
0.715379 0.243626 -0.0307945 0.654164 
0.971401 0.0466894 0.0814893 0.218081 
0.931733 0.155812 0.247963 0.214733 
0.872998 0.106465 0.203002 0.430499 
1 0.000646178 0.000193913 0.000461524 
0.464545 0.197074 0.639242 0.580284 
0.80546 0.16019 0.208233 0.531236 
0.973067 0.0554567 0.156413 0.16 
0.840849 0.483879 0.242507 -0.00493384 
0.987695 0.113077 0.0865597 0.064658 
0.422936 0.19358 0.881935 0.076436 
0.999938 0.00834925 0.00519597 0.00514693 
0.933896 0.135683 0.0158348 0.330419 
0.218235 0.323535 0.831742 0.394847 
0.822268 0.00687642 0.488428 0.292003 
0.259029 0.245797 0.696789 0.622072 
0.947128 0.0660144 0.273627 0.154011 
0.114949 0.809678 0.432343 0.379853 
0.241786 0.448885 0.409847 0.756351 
0.907485 0.19221 0.316201 0.198854 
0.895604 0.01201 0.325206 0.3033 
0.115508 0.577388 0.641376 0.491851 
0.835101 0.483927 0.255872 0.054317 
0.824488 0.388943 0.180706 0.369174 
0.997984 0.0571643 0.0186911 0.0202818 
0.733928 0.293165 0.134605 0.597734 
0.94956 0.0531351 0.230499 0.205872 
0.894099 0.242412 0.307197 0.217838 
0.872998 0.106465 0.203002 0.430499 
1 0.000646178 0.000193913 0.000461524 
0.464545 0.197074 0.639242 0.580284 
0.80546 0.16019 0.208233 0.531236 
0.973067 0.0554567 0.156413 0.16 
0.85666 0.475253 0.200024 0.0160836 
0.987695 0.113077 0.0865597 0.064658 
0.422936 0.19358 0.881935 0.076436 
0.999938 0.00834925 0.00519597 0.00514693 
0.933896 0.135683 0.0158348 0.330419 
0.218235 0.323535 0.831742 0.394847 
0.822268 0.00687642 0.488428 0.292003 
0.259029 0.245797 0.696789 0.622072 
0.947128 0.0660144 0.273627 0.154011 
0.114949 0.809678 0.432343 0.379853 
0.241786 0.448885 0.409847 0.756351 
0.907485 0.19221 0.316201 0.198854 
0.895604 0.01201 0.325206 0.3033 
0.115508 0.577388 0.641376 0.491851 
0.835101 0.483927 0.255872 0.054317 
0.824488 0.388943 0.180706 0.369174 
0.997984 0.0571643 0.0186911 0.0202818 
0.733928 0.293165 0.134605 0.597734 
0.94956 0.0531351 0.230499 0.205872 
0.894099 0.242412 0.307197 0.217838 
0.872998 0.106465 0.203002 0.430499 
1 0.000646178 0.000193913 0.000461524 
0.464545 0.197074 0.639242 0.580284 
0.80546 0.16019 0.208233 0.531236 
0.973067 0.0554567 0.156413 0.16 
0.85666 0.475253 0.200024 0.0160836 
0.987695 0.113077 0.0865597 0.064658 
0.422936 0.19358 0.881935 0.076436 
0.999938 0.00834925 0.00519597 0.00514693 
0.933896 0.135683 0.0158348 0.330419 
0.218235 0.323535 0.831742 0.394847 
0.822268 0.00687642 0.488428 0.292003 
0.259029 0.245797 0.696789 0.622072 
0.947128 0.0660144 0.273627 0.154011 
0.114949 0.809678 0.432343 0.379853 
0.241786 0.448885 0.409847 0.756351 
0.907485 0.19221 0.316201 0.198854 
0.895604 0.01201 0.325206 0.3033 
0.115508 0.577388 0.641376 0.491851 
0.835101 0.483927 0.255872 0.054317 
0.824488 0.388943 0.180706 0.369174 
0.997984 0.0571643 0.0186911 0.0202818 
0.733928 0.293165 0.134605 0.597734 
0.94956 0.0531351 0.230499 0.205872 
0.894099 0.242412 0.307197 0.217838 
0.872998 0.106465 0.203002 0.430499 
1 0.000646178 0.000193913 0.000461524 
0.464545 0.197074 0.639242 0.580284 
0.80546 0.16019 0.208233 0.531236 
0.973067 0.0554567 0.156413 0.16 
0.85666 0.475253 0.200024 0.0160836 
VECTORS vel double
-0.084706 -0.0167831 0.105335 
0 0 8.78342e-14 
0.0067656 -0.0394402 -0.024969 
0 0 8.78342e-14 
0 0 1.35438e-13 
-0.0944412 -0.247487 -0.0514331 
0 0 1.35438e-13 
0 0 1.35438e-13 
0.349732 0.0114392 -0.149084 
-0.123946 -0.175127 -0.0586512 
-0.283089 -0.103942 -0.0477997 
0 0 8.78342e-14 
0 0 1.35438e-13 
0.17169 -0.0802137 -0.0450682 
-0.243315 -0.0645988 -0.134955 
-0.0125661 -0.0379163 -0.00122569 
-0.0761998 0.0503625 0.0536877 
-0.286815 -0.049715 -0.227682 
-0.190924 0.103711 -0.0724296 
0 0 1.35438e-13 
0 0 1.35438e-13 
0 0 1.35438e-13 
0 0 1.35438e-13 
0 0 1.35438e-13 
0.11549 -0.0252392 -0.00206837 
0 0 -3.27555 
0 0 -3.27555 
0 0 -3.27555 
0 0 -3.27555 
0 0 -3.27555 
0 0 -3.27555 
0 0 -3.27555 
0 0 -3.27555 
0 0 -3.27555 
0 0 -3.27555 
0 0 -3.27555 
0 0 -3.27555 
0 0 -3.27555 
0 0 -3.27555 
0 0 -3.27555 
0 0 -3.27555 
0 0 -3.27555 
0 0 -3.27555 
0 0 -3.27555 
0 0 -3.27555 
0 0 -3.27555 
0 0 -3.27555 
0 0 -3.27555 
0 0 -3.27555 
0 0 -3.27555 
0 0 -2.78505 
0 0 -2.78505 
0 0 -2.78505 
0 0 -2.78505 
0 0 -2.78505 
0 0 -2.78505 
0 0 -2.78505 
0 0 -2.78505 
0 0 -2.78505 
0 0 -2.78505 
0 0 -2.78505 
0 0 -2.78505 
0 0 -2.78505 
0 0 -2.78505 
0 0 -2.78505 
0 0 -2.78505 
0 0 -2.78505 
0 0 -2.78505 
0 0 -2.78505 
0 0 -2.78505 
0 0 -2.78505 
0 0 -2.78505 
0 0 -2.78505 
0 0 -2.78505 
0 0 -2.78505 
0 0 -2.29455 
0 0 -2.29455 
0 0 -2.29455 
0 0 -2.29455 
0 0 -2.29455 
0 0 -2.29455 
0 0 -2.29455 
0 0 -2.29455 
0 0 -2.29455 
0 0 -2.29455 
0 0 -2.29455 
0 0 -2.29455 
0 0 -2.29455 
0 0 -2.29455 
0 0 -2.29455 
0 0 -2.29455 
0 0 -2.29455 
0 0 -2.29455 
0 0 -2.29455 
0 0 -2.29455 
0 0 -2.29455 
0 0 -2.29455 
0 0 -2.29455 
0 0 -2.29455 
0 0 -2.29455 
VECTORS spin double
0.923522 -2.54911 0.375567 
0 0 0 
1.20346 0.1522 0.133557 
0 0 0 
0 0 0 
4.17899 -1.53698 -0.277731 
0 0 0 
0 0 0 
0.0331874 7.60789 0.662538 
3.37991 -2.27267 -0.357236 
1.9157 -5.31279 0.202028 
0 0 0 
0 0 0 
1.43655 3.11857 -0.0777341 
1.26245 -4.74634 -0.00383104 
2.34149 -0.783173 1.25251 
-0.649918 -1.53333 0.689183 
1.11938 -6.46264 0.00404333 
-1.85993 -3.5279 -0.149313 
0 0 0 
0 0 0 
0 0 0 
0 0 0 
0 0 0 
0.437654 2.01995 0.0119008 
0 0 0 
0 0 0 
0 0 0 
0 0 0 
0 0 0 
0 0 0 
0 0 0 
0 0 0 
0 0 0 
0 0 0 
0 0 0 
0 0 0 
0 0 0 
0 0 0 
0 0 0 
0 0 0 
0 0 0 
0 0 0 
0 0 0 
0 0 0 
0 0 0 
0 0 0 
0 0 0 
0 0 0 
0 0 0 
0 0 0 
0 0 0 
0 0 0 
0 0 0 
0 0 0 
0 0 0 
0 0 0 
0 0 0 
0 0 0 
0 0 0 
0 0 0 
0 0 0 
0 0 0 
0 0 0 
0 0 0 
0 0 0 
0 0 0 
0 0 0 
0 0 0 
0 0 0 
0 0 0 
0 0 0 
0 0 0 
0 0 0 
0 0 0 
0 0 0 
0 0 0 
0 0 0 
0 0 0 
0 0 0 
0 0 0 
0 0 0 
0 0 0 
0 0 0 
0 0 0 
0 0 0 
0 0 0 
0 0 0 
0 0 0 
0 0 0 
0 0 0 
0 0 0 
0 0 0 
0 0 0 
0 0 0 
0 0 0 
0 0 0 
0 0 0 
0 0 0 
0 0 0 
VECTORS force double
-1.31443 0.522687 -10.9975 
0 0 0 
5.13313 -1.90386 -5.68524 
0 0 0 
0 0 0 
-0.532849 -1.15922 -3.63864 
0 0 0 
0 0 0 
0.410836 -0.268459 -9.05717 
0.693714 -2.50608 -3.91364 
-1.58268 1.88072 -6.74499 
0 0 0 
0 0 0 
1.15737 -1.98433 -2.54081 
-2.32838 -0.612697 -5.6997 
4.52741 -1.64856 -7.0267 
26.2235 40.1256 25.1563 
-0.545157 -0.0888771 -10.5636 
-2.78423 -1.24802 -4.81841 
0 0 0 
0 0 0 
0 0 0 
0 0 0 
0 0 0 
-0.055299 -1.00359 -4.05802 
0 0 -13.6117 
0 0 -13.6117 
0 0 -13.6117 
0 0 -13.6117 
0 0 -13.6117 
0 0 -13.6117 
0 0 -13.6117 
0 0 -13.6117 
0 0 -13.6117 
0 0 -13.6117 
0 0 -13.6117 
0 0 -13.6117 
0 0 -13.6117 
0 0 -13.6117 
0 0 -13.6117 
0 0 -13.6117 
0 0 -13.6117 
0 0 -13.6117 
0 0 -13.6117 
0 0 -13.6117 
0 0 -13.6117 
0 0 -13.6117 
0 0 -13.6117 
0 0 -13.6117 
0 0 -13.6117 
0 0 -13.6117 
0 0 -13.6117 
0 0 -13.6117 
0 0 -13.6117 
0 0 -13.6117 
0 0 -13.6117 
0 0 -13.6117 
0 0 -13.6117 
0 0 -13.6117 
0 0 -13.6117 
0 0 -13.6117 
0 0 -13.6117 
0 0 -13.6117 
0 0 -13.6117 
0 0 -13.6117 
0 0 -13.6117 
0 0 -13.6117 
0 0 -13.6117 
0 0 -13.6117 
0 0 -13.6117 
0 0 -13.6117 
0 0 -13.6117 
0 0 -13.6117 
0 0 -13.6117 
0 0 -13.6117 
0 0 -13.6117 
0 0 -13.6117 
0 0 -13.6117 
0 0 -13.6117 
0 0 -13.6117 
0 0 -13.6117 
0 0 -13.6117 
0 0 -13.6117 
0 0 -13.6117 
0 0 -13.6117 
0 0 -13.6117 
0 0 -13.6117 
0 0 -13.6117 
0 0 -13.6117 
0 0 -13.6117 
0 0 -13.6117 
0 0 -13.6117 
0 0 -13.6117 
0 0 -13.6117 
0 0 -13.6117 
0 0 -13.6117 
0 0 -13.6117 
0 0 -13.6117 
0 0 -13.6117 
0 0 -13.6117 
VECTORS moment double
0.0502197 0.164921 -0.00772373 
0 0 0 
0.0484308 0.142032 0.00275141 
0 0 0 
0 0 0 
0.0350298 -0.0182962 -0.00025506 
0 0 0 
0 0 0 
0.0138112 0.0702865 0.00289706 
0.0742729 0.0160975 -0.00115305 
-0.0328419 -0.0258385 -0.00049271 
0 0 0 
0 0 0 
0.0336382 0.0295373 0.0017776 
0.0345464 -0.0878404 0.00336421 
0.0326403 0.100187 0.00264064 
0.200612 0.105072 -0.24445 
0.0167659 -0.0796212 0.000676982 
0.0277954 -0.0807579 -0.00266097 
0 0 0 
0 0 0 
0 0 0 
0 0 0 
0 0 0 
0.0144388 0.00698104 0.000816912 
0 0 0 
0 0 0 
0 0 0 
0 0 0 
0 0 0 
0 0 0 
0 0 0 
0 0 0 
0 0 0 
0 0 0 
0 0 0 
0 0 0 
0 0 0 
0 0 0 
0 0 0 
0 0 0 
0 0 0 
0 0 0 
0 0 0 
0 0 0 
0 0 0 
0 0 0 
0 0 0 
0 0 0 
0 0 0 
0 0 0 
0 0 0 
0 0 0 
0 0 0 
0 0 0 
0 0 0 
0 0 0 
0 0 0 
0 0 0 
0 0 0 
0 0 0 
0 0 0 
0 0 0 
0 0 0 
0 0 0 
0 0 0 
0 0 0 
0 0 0 
0 0 0 
0 0 0 
0 0 0 
0 0 0 
0 0 0 
0 0 0 
0 0 0 
0 0 0 
0 0 0 
0 0 0 
0 0 0 
0 0 0 
0 0 0 
0 0 0 
0 0 0 
0 0 0 
0 0 0 
0 0 0 
0 0 0 
0 0 0 
0 0 0 
0 0 0 
0 0 0 
0 0 0 
0 0 0 
0 0 0 
0 0 0 
0 0 0 
0 0 0 
0 0 0 
0 0 0 
0 0 0 
SCALARS shape_id int 1
LOOKUP_TABLE default
0
1
0
1
1
0
1
1
0
0
0
1
1
0
0
0
0
0
0
1
1
1
1
1
0
0
1
0
1
1
0
1
1
0
0
0
1
1
0
0
0
0
0
0
1
1
1
1
1
0
0
1
0
1
1
0
1
1
0
0
0
1
1
0
0
0
0
0
0
1
1
1
1
1
0
0
1
0
1
1
0
1
1
0
0
0
1
1
0
0
0
0
0
0
1
1
1
1
1
0
SCALARS size double 1
LOOKUP_TABLE default
0.1
0.1
0.1
0.1
0.1
0.1
0.1
0.1
0.1
0.1
0.1
0.1
0.1
0.1
0.1
0.1
0.1
0.1
0.1
0.1
0.1
0.1
0.1
0.1
0.1
0.1
0.1
0.1
0.1
0.1
0.1
0.1
0.1
0.1
0.1
0.1
0.1
0.1
0.1
0.1
0.1
0.1
0.1
0.1
0.1
0.1
0.1
0.1
0.1
0.1
0.1
0.1
0.1
0.1
0.1
0.1
0.1
0.1
0.1
0.1
0.1
0.1
0.1
0.1
0.1
0.1
0.1
0.1
0.1
0.1
0.1
0.1
0.1
0.1
0.1
0.1
0.1
0.1
0.1
0.1
0.1
0.1
0.1
0.1
0.1
0.1
0.1
0.1
0.1
0.1
0.1
0.1
0.1
0.1
0.1
0.1
0.1
0.1
0.1
0.1
SCALARS mass double 1
LOOKUP_TABLE default
1.38754
1.38754
1.38754
1.38754
1.38754
1.38754
1.38754
1.38754
1.38754
1.38754
1.38754
1.38754
1.38754
1.38754
1.38754
1.38754
1.38754
1.38754
1.38754
1.38754
1.38754
1.38754
1.38754
1.38754
1.38754
1.38754
1.38754
1.38754
1.38754
1.38754
1.38754
1.38754
1.38754
1.38754
1.38754
1.38754
1.38754
1.38754
1.38754
1.38754
1.38754
1.38754
1.38754
1.38754
1.38754
1.38754
1.38754
1.38754
1.38754
1.38754
1.38754
1.38754
1.38754
1.38754
1.38754
1.38754
1.38754
1.38754
1.38754
1.38754
1.38754
1.38754
1.38754
1.38754
1.38754
1.38754
1.38754
1.38754
1.38754
1.38754
1.38754
1.38754
1.38754
1.38754
1.38754
1.38754
1.38754
1.38754
1.38754
1.38754
1.38754
1.38754
1.38754
1.38754
1.38754
1.38754
1.38754
1.38754
1.38754
1.38754
1.38754
1.38754
1.38754
1.38754
1.38754
1.38754
1.38754
1.38754
1.38754
1.38754
VECTORS moi double
0.00116818 0.00159003 0.00189584 
0.00138754 0.00138754 0.00138754 
0.00116818 0.00159003 0.00189584 
0.00138754 0.00138754 0.00138754 
0.00138754 0.00138754 0.00138754 
0.00116818 0.00159003 0.00189584 
0.00138754 0.00138754 0.00138754 
0.00138754 0.00138754 0.00138754 
0.00116818 0.00159003 0.00189584 
0.00116818 0.00159003 0.00189584 
0.00116818 0.00159003 0.00189584 
0.00138754 0.00138754 0.00138754 
0.00138754 0.00138754 0.00138754 
0.00116818 0.00159003 0.00189584 
0.00116818 0.00159003 0.00189584 
0.00116818 0.00159003 0.00189584 
0.00116818 0.00159003 0.00189584 
0.00116818 0.00159003 0.00189584 
0.00116818 0.00159003 0.00189584 
0.00138754 0.00138754 0.00138754 
0.00138754 0.00138754 0.00138754 
0.00138754 0.00138754 0.00138754 
0.00138754 0.00138754 0.00138754 
0.00138754 0.00138754 0.00138754 
0.00116818 0.00159003 0.00189584 
0.00116818 0.00159003 0.00189584 
0.00138754 0.00138754 0.00138754 
0.00116818 0.00159003 0.00189584 
0.00138754 0.00138754 0.00138754 
0.00138754 0.00138754 0.00138754 
0.00116818 0.00159003 0.00189584 
0.00138754 0.00138754 0.00138754 
0.00138754 0.00138754 0.00138754 
0.00116818 0.00159003 0.00189584 
0.00116818 0.00159003 0.00189584 
0.00116818 0.00159003 0.00189584 
0.00138754 0.00138754 0.00138754 
0.00138754 0.00138754 0.00138754 
0.00116818 0.00159003 0.00189584 
0.00116818 0.00159003 0.00189584 
0.00116818 0.00159003 0.00189584 
0.00116818 0.00159003 0.00189584 
0.00116818 0.00159003 0.00189584 
0.00116818 0.00159003 0.00189584 
0.00138754 0.00138754 0.00138754 
0.00138754 0.00138754 0.00138754 
0.00138754 0.00138754 0.00138754 
0.00138754 0.00138754 0.00138754 
0.00138754 0.00138754 0.00138754 
0.00116818 0.00159003 0.00189584 
0.00116818 0.00159003 0.00189584 
0.00138754 0.00138754 0.00138754 
0.00116818 0.00159003 0.00189584 
0.00138754 0.00138754 0.00138754 
0.00138754 0.00138754 0.00138754 
0.00116818 0.00159003 0.00189584 
0.00138754 0.00138754 0.00138754 
0.00138754 0.00138754 0.00138754 
0.00116818 0.00159003 0.00189584 
0.00116818 0.00159003 0.00189584 
0.00116818 0.00159003 0.00189584 
0.00138754 0.00138754 0.00138754 
0.00138754 0.00138754 0.00138754 
0.00116818 0.00159003 0.00189584 
0.00116818 0.00159003 0.00189584 
0.00116818 0.00159003 0.00189584 
0.00116818 0.00159003 0.00189584 
0.00116818 0.00159003 0.00189584 
0.00116818 0.00159003 0.00189584 
0.00138754 0.00138754 0.00138754 
0.00138754 0.00138754 0.00138754 
0.00138754 0.00138754 0.00138754 
0.00138754 0.00138754 0.00138754 
0.00138754 0.00138754 0.00138754 
0.00116818 0.00159003 0.00189584 
0.00116818 0.00159003 0.00189584 
0.00138754 0.00138754 0.00138754 
0.00116818 0.00159003 0.00189584 
0.00138754 0.00138754 0.00138754 
0.00138754 0.00138754 0.00138754 
0.00116818 0.00159003 0.00189584 
0.00138754 0.00138754 0.00138754 
0.00138754 0.00138754 0.00138754 
0.00116818 0.00159003 0.00189584 
0.00116818 0.00159003 0.00189584 
0.00116818 0.00159003 0.00189584 
0.00138754 0.00138754 0.00138754 
0.00138754 0.00138754 0.00138754 
0.00116818 0.00159003 0.00189584 
0.00116818 0.00159003 0.00189584 
0.00116818 0.00159003 0.00189584 
0.00116818 0.00159003 0.00189584 
0.00116818 0.00159003 0.00189584 
0.00116818 0.00159003 0.00189584 
0.00138754 0.00138754 0.00138754 
0.00138754 0.00138754 0.00138754 
0.00138754 0.00138754 0.00138754 
0.00138754 0.00138754 0.00138754 
0.00138754 0.00138754 0.00138754 
0.00116818 0.00159003 0.00189584 
SCALARS mask int 1
LOOKUP_TABLE default
0
0
0
0
0
0
0
0
0
0
0
0
0
0
0
0
0
0
0
0
0
0
0
0
0
0
0
0
0
0
0
0
0
0
0
0
0
0
0
0
0
0
0
0
0
0
0
0
0
0
0
0
0
0
0
0
0
0
0
0
0
0
0
0
0
0
0
0
0
0
0
0
0
0
0
0
0
0
0
0
0
0
0
0
0
0
0
0
0
0
0
0
0
0
0
0
0
0
0
0
