# vtk DataFile Version 2.0
Generated by NetDEM
ASCII 
DATASET POLYDATA
POINTS 375 double
-0.418516 -0.405231 -0.463327 
-0.447433 -0.203503 -0.450042 
-0.408362 -0.00592567 -0.462886 
-0.448742 0.120983 -0.450012 
-0.449325 0.345381 -0.450025 
-0.27094 -0.429852 -0.459122 
-0.282959 -0.208498 -0.445774 
-0.194181 -0.0104388 -0.450007 
-0.174232 0.171967 -0.463665 
-0.252037 0.369322 -0.46421 
-0.0488041 -0.405049 -0.461839 
-0.127589 -0.149986 -0.450007 
-0.0533487 -0.0818482 -0.439711 
0.0342017 0.179651 -0.452493 
-0.0321174 0.322471 -0.440543 
0.194193 -0.399945 -0.462023 
0.170493 -0.208592 -0.463145 
0.173022 -0.00966218 -0.462503 
0.160131 0.209887 -0.465106 
0.305014 0.406598 -0.409414 
0.44904 -0.405863 -0.450011 
0.428344 -0.30094 -0.45001 
0.338645 -0.0103961 -0.450007 
0.381536 0.0913423 -0.450026 
0.370124 0.43817 -0.465052 
-0.419892 -0.400341 -0.388181 
-0.450001 -0.199631 -0.0460514 
-0.393861 -0.00356324 -0.385107 
-0.45 0.175727 -0.366344 
-0.447453 0.448253 -0.409475 
-0.323906 -0.411415 -0.395874 
-0.219446 -0.191095 -0.280553 
-0.145678 -0.0913489 0.135078 
-0.311409 0.156182 -0.462289 
-0.14368 0.397557 -0.446894 
-0.0769871 -0.404696 -0.389869 
0.229626 -0.220448 0.0478741 
0.0140096 0.0276498 -0.0980922 
0.023896 0.261532 -0.449527 
0.116908 0.296231 -0.413546 
0.208014 -0.406979 -0.389399 
0.173712 -0.202725 -0.390043 
0.177793 0.0011544 -0.383767 
0.195972 0.112265 -0.456105 
0.287444 0.379053 -0.314906 
0.401475 -0.449987 -0.373654 
0.435765 -0.353981 -0.365564 
0.271338 -0.192296 -0.450007 
0.450001 0.137304 -0.39342 
0.424324 0.339302 -0.455889 
-0.420094 -0.427708 -0.31873 
-0.306078 -0.204458 -0.0951949 
-0.340558 -0.00430742 -0.318183 
-0.278735 0.251266 -0.449766 
-0.43993 0.274208 -0.38043 
-0.182356 -0.370996 -0.452481 
0.137395 -0.273656 -0.0567285 
-0.218868 -0.060808 0.234551 
-0.161318 0.0792348 -0.432823 
-0.349348 0.335199 -0.330531 
0.0338639 -0.435934 -0.405284 
0.204586 -0.310982 0.347856 
0.123497 0.0733681 0.0804078 
-0.034489 0.22411 -0.371799 
0.25067 0.337894 -0.461064 
0.198385 -0.419151 -0.314837 
0.0721293 -0.105037 -0.443316 
0.166449 0.0381013 -0.319594 
0.274121 0.0665174 -0.443635 
0.11913 0.139082 -0.390181 
0.291233 -0.450094 -0.363454 
0.378739 -0.201613 -0.450153 
0.381649 -0.100027 -0.436855 
0.449987 0.23293 -0.364223 
0.439121 0.255717 -0.459788 
-0.425002 -0.439908 -0.244329 
-0.239426 -0.20464 0.00586217 
-0.295259 0.0129774 -0.256673 
-0.274108 0.150625 -0.381316 
-0.345121 0.145834 -0.258828 
-0.159076 -0.445469 -0.386932 
-0.206311 -0.13428 -0.0857649 
-0.272012 0.0705951 0.226423 
-0.0657887 0.14424 -0.432154 
-0.355791 0.368538 -0.403067 
0.0957263 -0.447561 -0.326092 
0.449525 -0.311466 0.0977771 
-0.147011 -0.207421 -0.138432 
0.0315934 0.0600058 -0.450248 
0.0750477 0.388737 -0.395788 
0.240891 -0.426948 -0.227172 
0.169945 -0.292608 -0.365383 
0.146704 0.0557121 -0.252966 
0.260433 0.177875 -0.445395 
0.156223 0.450021 -0.450021 
0.358052 -0.3175 -0.313695 
0.45 -0.109206 -0.36407 
0.383983 0.167524 -0.32465 
0.330351 0.308847 -0.411086 
0.426594 0.366457 -0.375383 
-0.394777 -0.445949 -0.155388 
-0.404222 -0.337107 -0.0519743 
-0.36427 -0.00526667 -0.179445 
-0.383247 0.0878974 -0.331272 
-0.44976 0.380257 -0.327972 
-0.255166 -0.426508 -0.352399 
-0.16018 -0.210462 0.0677389 
-0.200737 0.0251463 0.282417 
-0.0354161 -0.0174103 -0.365308 
-0.423805 0.24254 -0.463609 
0.0709327 -0.347352 -0.355344 
0.262872 -0.180912 0.133417 
-0.00597805 -0.0747138 -0.0394897 
0.0270406 0.0655007 -0.347415 
0.00771285 0.436195 -0.440716 
0.268294 -0.389075 -0.169447 
0.262938 -0.306233 -0.340902 
0.0824144 0.0729259 -0.208565 
0.234723 0.231504 -0.375888 
0.35238 0.449044 -0.245383 
0.349484 -0.414318 -0.290575 
0.450068 -0.208146 -0.380586 
0.44651 -0.00356428 -0.450007 
0.328121 0.210041 -0.395884 
0.39596 0.450008 -0.354185 
-0.460235 -0.452116 -0.0781772 
-0.322177 -0.230477 0.106879 
-0.454851 -0.0271492 -0.177928 
-0.243073 0.186466 -0.275881 
-0.312538 0.428172 -0.334447 
-0.163179 -0.405352 -0.308681 
-0.104206 -0.248802 -0.0547986 
-0.160671 -0.158742 0.290724 
-0.118066 0.152451 -0.289333 
-0.230379 0.330631 -0.36615 
-0.0859562 -0.32247 -0.346786 
0.334791 -0.326645 0.296068 
0.306935 0.0287302 0.0830267 
0.0753245 0.116388 -0.296484 
-0.103168 0.318046 -0.380969 
0.193354 -0.418634 -0.101973 
0.242959 -0.146181 -0.361007 
0.120027 0.0167388 -0.123687 
0.202196 0.312353 -0.332315 
0.207527 0.389063 -0.389607 
0.434038 -0.449993 -0.250858 
0.344704 -0.170708 -0.361328 
0.259465 -0.0580837 -0.41154 
0.450004 0.0607607 -0.329033 
0.437615 0.400139 -0.288608 
-0.434587 -0.450633 0.0789739 
-0.251927 -0.184011 0.250727 
-0.440956 -0.0633621 -0.0873141 
-0.208455 0.276381 -0.244213 
-0.319572 0.270458 -0.260352 
-0.126301 -0.358135 -0.243604 
0.105403 -0.407503 0.143556 
-0.332963 0.35225 0.117948 
-0.103081 0.267234 -0.240062 
-0.218579 0.430215 -0.389442 
-0.00507991 -0.352395 -0.284583 
0.11076 -0.229225 0.341177 
-0.0838064 -0.0756976 0.051725 
0.0372971 0.182013 -0.192419 
-0.00600055 0.279399 -0.303897 
0.0965061 -0.446933 -0.0739849 
0.150229 -0.101432 -0.336612 
0.260774 -0.0972757 -0.0697622 
0.22547 0.186497 -0.314733 
0.159643 0.437896 -0.304273 
0.397626 -0.227143 -0.29781 
0.360327 -0.0839623 -0.314107 
0.324332 0.0647729 -0.372441 
0.398723 0.299069 -0.306258 
0.44635 0.375535 -0.197052 
-0.311997 -0.434575 0.0581598 
-0.447312 -0.135946 0.031105 
-0.382339 0.00651279 -0.0746971 
-0.449939 0.120834 -0.262771 
-0.424675 0.267904 -0.281582 
-0.265206 -0.380305 -0.288269 
-0.15636 -0.317846 0.0430119 
-0.179214 0.284347 0.156555 
-0.12801 0.19207 -0.192724 
-0.151281 0.434983 -0.323039 
0.0246331 -0.437802 -0.278121 
-0.0353577 -0.134573 0.178573 
-0.0430163 -0.216425 0.0834269 
-0.034231 0.256859 -0.155367 
0.00988341 0.403825 -0.322431 
0.105106 -0.431651 0.021912 
0.134866 -0.101519 -0.240949 
0.286034 -0.163402 -0.0131438 
0.207988 0.151155 -0.245155 
0.250564 0.449928 -0.253994 
0.43759 -0.315732 -0.253158 
0.447587 -0.15199 -0.254935 
0.362793 0.0471688 -0.281828 
0.315911 0.243143 -0.302313 
0.38223 0.425764 -0.164836 
-0.230408 -0.426967 0.00283828 
-0.449876 0.212151 -0.0982501 
-0.294288 0.177753 -0.0879268 
-0.227911 0.0934799 -0.2307 
-0.370652 0.449517 -0.254225 
-0.213221 -0.390946 -0.196332 
-0.0617009 -0.32659 0.0110223 
-0.00166998 -0.247689 0.195971 
-0.168152 0.128034 -0.118419 
-0.173423 0.360109 -0.270918 
-0.0201287 -0.404859 -0.205941 
0.0920834 -0.335619 0.428895 
0.0206972 0.19167 0.110025 
-0.0664354 0.155689 -0.0945645 
0.134386 0.366935 -0.221028 
0.188129 -0.403253 0.0758021 
0.197776 -0.183377 -0.241261 
0.332561 -0.128354 0.084291 
0.154806 0.228896 -0.262112 
0.226687 0.325784 -0.236369 
0.418461 -0.377338 -0.176759 
0.426728 -0.258521 -0.171879 
0.434051 -0.025279 -0.280638 
0.314199 0.13982 -0.258612 
0.421958 0.408617 -0.0949204 
-0.217574 -0.343785 0.106667 
-0.446758 -0.293112 0.171524 
-0.445497 0.400145 0.0823408 
-0.371344 0.259089 0.309023 
-0.44353 0.449728 0.364061 
-0.131798 -0.405667 -0.154569 
-0.0872562 -0.149084 0.412527 
-0.130104 -0.05318 0.433742 
-0.196456 0.17873 -0.053108 
-0.184335 0.349783 -0.155242 
-0.033252 -0.389352 -0.123004 
0.0396545 -0.123891 0.434983 
-0.0612208 0.031183 0.305837 
0.0152856 0.125762 -0.0166675 
0.0134026 0.446332 -0.156293 
0.298108 -0.375357 0.0175893 
0.213171 -0.294249 -0.115617 
0.344807 -0.0539324 0.164174 
0.176779 0.261174 -0.177352 
0.192194 0.449896 0.133991 
0.371015 -0.44953 -0.013706 
0.449701 -0.199649 0.056231 
0.335021 0.132629 0.420544 
0.412435 0.219082 0.154189 
0.438832 0.398562 -0.00835246 
-0.315294 -0.320201 0.143701 
-0.155086 -0.203907 0.173494 
-0.33092 -0.0380051 0.1992 
-0.244088 0.174284 -0.173827 
-0.384906 0.44874 -0.131857 
-0.214935 -0.411454 -0.0818199 
0.144276 -0.379396 0.268988 
-0.250495 0.120704 0.312004 
-0.229517 0.284727 0.0305111 
-0.16221 0.42667 -0.105904 
-0.00190167 -0.383836 -0.0388746 
0.449765 -0.375616 0.220257 
0.105725 0.415676 0.0615593 
-0.0738172 0.364097 -0.0783506 
-0.0308125 0.443674 -0.0353776 
0.336068 -0.440431 0.114045 
0.377576 -0.162547 0.000303818 
0.199086 -0.00350141 0.149811 
0.236817 0.196338 -0.155089 
0.0807632 0.238141 -0.346123 
0.391335 -0.305469 -0.0907263 
0.392456 -0.159058 -0.171901 
0.415802 0.0601999 -0.196914 
0.44711 0.220248 -0.265046 
0.40658 0.44494 0.0541436 
-0.348975 -0.41077 0.1722 
-0.180183 -0.249871 0.329713 
-0.441361 -0.114221 0.322236 
-0.449989 0.0649314 -0.0409257 
-0.350907 0.211944 -0.18303 
-0.135404 -0.440419 0.00956032 
-0.0570532 -0.325694 0.143074 
-0.355791 0.449386 0.0601977 
-0.282871 0.322116 -0.0725558 
-0.192837 0.435489 0.0222237 
-0.000351563 -0.40918 0.043024 
-0.163614 0.0499487 0.372611 
0.0403267 0.180171 0.207913 
-0.047646 0.283933 0.00892702 
0.00769741 0.407106 0.0374531 
0.303894 -0.452623 0.262451 
0.172642 -0.269922 0.421728 
0.107162 0.0217103 0.168642 
0.216559 0.175186 -0.0500818 
0.125119 0.223572 0.00893123 
0.406431 -0.278382 0.00512949 
0.420385 -0.188429 -0.0805502 
0.36634 -0.0704258 -0.215214 
0.447595 0.261828 -0.158657 
0.382202 0.424601 0.143594 
-0.255911 -0.360276 0.215398 
-0.409477 0.000542554 0.057826 
-0.367662 -0.0403086 0.444531 
-0.426574 0.144989 -0.168582 
-0.441909 0.449984 -0.041431 
-0.172354 -0.445738 0.140557 
-0.0684359 -0.331866 0.383239 
-0.294095 0.170939 0.201909 
-0.110606 0.249723 0.250714 
-0.23246 0.39286 0.132076 
0.00553012 -0.420734 0.136995 
-0.412954 -0.158117 0.221069 
-0.0204243 -0.0481724 0.24675 
-0.0158457 0.304078 0.171821 
-0.0215859 0.420529 0.118293 
0.0926101 -0.447272 0.352644 
0.375584 -0.0900574 0.386199 
0.13137 -0.159899 0.415297 
0.314908 0.339562 -0.0873573 
0.283142 0.447771 0.0300697 
0.399674 -0.428085 0.289552 
0.449992 -0.159763 0.406238 
0.263584 -0.0280016 -0.304641 
0.364258 0.310955 0.0222432 
0.440058 0.444597 0.230385 
-0.326483 -0.398736 0.417175 
-0.341854 -0.244768 0.272176 
-0.443327 0.0846973 0.08586 
-0.449943 0.239834 0.00372947 
-0.438431 0.310946 -0.138382 
-0.10514 -0.426797 0.269821 
-0.0664383 -0.197391 0.295058 
-0.289148 0.201657 0.356618 
-0.11171 0.360791 0.03759 
-0.209693 0.436373 0.31921 
-0.00312655 -0.408955 0.230161 
0.0759444 -0.200094 0.241204 
-0.0112118 0.0692574 0.106039 
0.0290008 0.245728 0.332071 
-0.00237863 0.401408 0.209981 
0.191233 -0.445788 0.326459 
0.188621 -0.36469 0.166068 
0.157391 0.103218 0.265133 
0.222556 0.197619 0.0565347 
0.211687 0.426983 -0.127443 
0.449669 -0.423059 0.0994938 
0.439208 -0.327754 0.310519 
0.396488 -0.00351175 -0.101661 
0.396508 0.196508 -0.101641 
0.352736 0.423436 0.421095 
-0.449293 -0.405028 0.40005 
-0.434643 -0.207008 0.342161 
-0.425321 0.00770271 0.366607 
-0.426687 0.140849 0.376931 
-0.446068 0.296351 0.163561 
-0.197465 -0.390316 0.304753 
-0.200499 -0.157112 0.443271 
-0.207974 -0.0821734 0.376213 
-0.205526 0.367133 0.267486 
-0.196356 0.399814 0.425326 
0.00294018 -0.437802 0.321716 
0.0233061 -0.219481 0.393336 
-0.0360052 -0.0234114 0.38602 
0.00396249 0.27769 0.43266 
-0.00683798 0.395648 0.305909 
0.189786 -0.381493 0.434295 
0.204136 -0.215405 0.289256 
0.264486 0.0146144 0.438559 
0.197198 0.197198 0.172648 
0.200999 0.402931 0.413687 
0.403176 -0.371083 0.418221 
0.428111 -0.228216 0.149589 
0.373517 0.0267054 0.204694 
0.402588 0.104362 0.270757 
0.383641 0.367793 0.253161 
VERTICES 375 750
1 0
1 1
1 2
1 3
1 4
1 5
1 6
1 7
1 8
1 9
1 10
1 11
1 12
1 13
1 14
1 15
1 16
1 17
1 18
1 19
1 20
1 21
1 22
1 23
1 24
1 25
1 26
1 27
1 28
1 29
1 30
1 31
1 32
1 33
1 34
1 35
1 36
1 37
1 38
1 39
1 40
1 41
1 42
1 43
1 44
1 45
1 46
1 47
1 48
1 49
1 50
1 51
1 52
1 53
1 54
1 55
1 56
1 57
1 58
1 59
1 60
1 61
1 62
1 63
1 64
1 65
1 66
1 67
1 68
1 69
1 70
1 71
1 72
1 73
1 74
1 75
1 76
1 77
1 78
1 79
1 80
1 81
1 82
1 83
1 84
1 85
1 86
1 87
1 88
1 89
1 90
1 91
1 92
1 93
1 94
1 95
1 96
1 97
1 98
1 99
1 100
1 101
1 102
1 103
1 104
1 105
1 106
1 107
1 108
1 109
1 110
1 111
1 112
1 113
1 114
1 115
1 116
1 117
1 118
1 119
1 120
1 121
1 122
1 123
1 124
1 125
1 126
1 127
1 128
1 129
1 130
1 131
1 132
1 133
1 134
1 135
1 136
1 137
1 138
1 139
1 140
1 141
1 142
1 143
1 144
1 145
1 146
1 147
1 148
1 149
1 150
1 151
1 152
1 153
1 154
1 155
1 156
1 157
1 158
1 159
1 160
1 161
1 162
1 163
1 164
1 165
1 166
1 167
1 168
1 169
1 170
1 171
1 172
1 173
1 174
1 175
1 176
1 177
1 178
1 179
1 180
1 181
1 182
1 183
1 184
1 185
1 186
1 187
1 188
1 189
1 190
1 191
1 192
1 193
1 194
1 195
1 196
1 197
1 198
1 199
1 200
1 201
1 202
1 203
1 204
1 205
1 206
1 207
1 208
1 209
1 210
1 211
1 212
1 213
1 214
1 215
1 216
1 217
1 218
1 219
1 220
1 221
1 222
1 223
1 224
1 225
1 226
1 227
1 228
1 229
1 230
1 231
1 232
1 233
1 234
1 235
1 236
1 237
1 238
1 239
1 240
1 241
1 242
1 243
1 244
1 245
1 246
1 247
1 248
1 249
1 250
1 251
1 252
1 253
1 254
1 255
1 256
1 257
1 258
1 259
1 260
1 261
1 262
1 263
1 264
1 265
1 266
1 267
1 268
1 269
1 270
1 271
1 272
1 273
1 274
1 275
1 276
1 277
1 278
1 279
1 280
1 281
1 282
1 283
1 284
1 285
1 286
1 287
1 288
1 289
1 290
1 291
1 292
1 293
1 294
1 295
1 296
1 297
1 298
1 299
1 300
1 301
1 302
1 303
1 304
1 305
1 306
1 307
1 308
1 309
1 310
1 311
1 312
1 313
1 314
1 315
1 316
1 317
1 318
1 319
1 320
1 321
1 322
1 323
1 324
1 325
1 326
1 327
1 328
1 329
1 330
1 331
1 332
1 333
1 334
1 335
1 336
1 337
1 338
1 339
1 340
1 341
1 342
1 343
1 344
1 345
1 346
1 347
1 348
1 349
1 350
1 351
1 352
1 353
1 354
1 355
1 356
1 357
1 358
1 359
1 360
1 361
1 362
1 363
1 364
1 365
1 366
1 367
1 368
1 369
1 370
1 371
1 372
1 373
1 374
POINT_DATA 375
SCALARS id int 1
LOOKUP_TABLE default
0
1
2
3
4
5
6
7
8
9
10
11
12
13
14
15
16
17
18
19
20
21
22
23
24
25
26
27
28
29
30
31
32
33
34
35
36
37
38
39
40
41
42
43
44
45
46
47
48
49
50
51
52
53
54
55
56
57
58
59
60
61
62
63
64
65
66
67
68
69
70
71
72
73
74
75
76
77
78
79
80
81
82
83
84
85
86
87
88
89
90
91
92
93
94
95
96
97
98
99
100
101
102
103
104
105
106
107
108
109
110
111
112
113
114
115
116
117
118
119
120
121
122
123
124
125
126
127
128
129
130
131
132
133
134
135
136
137
138
139
140
141
142
143
144
145
146
147
148
149
150
151
152
153
154
155
156
157
158
159
160
161
162
163
164
165
166
167
168
169
170
171
172
173
174
175
176
177
178
179
180
181
182
183
184
185
186
187
188
189
190
191
192
193
194
195
196
197
198
199
200
201
202
203
204
205
206
207
208
209
210
211
212
213
214
215
216
217
218
219
220
221
222
223
224
225
226
227
228
229
230
231
232
233
234
235
236
237
238
239
240
241
242
243
244
245
246
247
248
249
250
251
252
253
254
255
256
257
258
259
260
261
262
263
264
265
266
267
268
269
270
271
272
273
274
275
276
277
278
279
280
281
282
283
284
285
286
287
288
289
290
291
292
293
294
295
296
297
298
299
300
301
302
303
304
305
306
307
308
309
310
311
312
313
314
315
316
317
318
319
320
321
322
323
324
325
326
327
328
329
330
331
332
333
334
335
336
337
338
339
340
341
342
343
344
345
346
347
348
349
350
351
352
353
354
355
356
357
358
359
360
361
362
363
364
365
366
367
368
369
370
371
372
373
374
SCALARS type int 1
LOOKUP_TABLE default
0
0
0
0
0
0
0
0
0
0
0
0
0
0
0
0
0
0
0
0
0
0
0
0
0
0
0
0
0
0
0
0
0
0
0
0
0
0
0
0
0
0
0
0
0
0
0
0
0
0
0
0
0
0
0
0
0
0
0
0
0
0
0
0
0
0
0
0
0
0
0
0
0
0
0
0
0
0
0
0
0
0
0
0
0
0
0
0
0
0
0
0
0
0
0
0
0
0
0
0
0
0
0
0
0
0
0
0
0
0
0
0
0
0
0
0
0
0
0
0
0
0
0
0
0
0
0
0
0
0
0
0
0
0
0
0
0
0
0
0
0
0
0
0
0
0
0
0
0
0
0
0
0
0
0
0
0
0
0
0
0
0
0
0
0
0
0
0
0
0
0
0
0
0
0
0
0
0
0
0
0
0
0
0
0
0
0
0
0
0
0
0
0
0
0
0
0
0
0
0
0
0
0
0
0
0
0
0
0
0
0
0
0
0
0
0
0
0
0
0
0
0
0
0
0
0
0
0
0
0
0
0
0
0
0
0
0
0
0
0
0
0
0
0
0
0
0
0
0
0
0
0
0
0
0
0
0
0
0
0
0
0
0
0
0
0
0
0
0
0
0
0
0
0
0
0
0
0
0
0
0
0
0
0
0
0
0
0
0
0
0
0
0
0
0
0
0
0
0
0
0
0
0
0
0
0
0
0
0
0
0
0
0
0
0
0
0
0
0
0
0
0
0
0
0
0
0
0
0
0
0
0
0
0
0
0
0
0
0
0
0
0
0
0
0
0
0
0
0
0
0
0
0
0
0
0
0
0
0
0
0
0
0
0
0
0
0
0
0
0
0
0
0
0
0
SCALARS damp_viscous double 1
LOOKUP_TABLE default
0
0
0
0
0
0
0
0
0
0
0
0
0
0
0
0
0
0
0
0
0
0
0
0
0
0
0
0
0
0
0
0
0
0
0
0
0
0
0
0
0
0
0
0
0
0
0
0
0
0
0
0
0
0
0
0
0
0
0
0
0
0
0
0
0
0
0
0
0
0
0
0
0
0
0
0
0
0
0
0
0
0
0
0
0
0
0
0
0
0
0
0
0
0
0
0
0
0
0
0
0
0
0
0
0
0
0
0
0
0
0
0
0
0
0
0
0
0
0
0
0
0
0
0
0
0
0
0
0
0
0
0
0
0
0
0
0
0
0
0
0
0
0
0
0
0
0
0
0
0
0
0
0
0
0
0
0
0
0
0
0
0
0
0
0
0
0
0
0
0
0
0
0
0
0
0
0
0
0
0
0
0
0
0
0
0
0
0
0
0
0
0
0
0
0
0
0
0
0
0
0
0
0
0
0
0
0
0
0
0
0
0
0
0
0
0
0
0
0
0
0
0
0
0
0
0
0
0
0
0
0
0
0
0
0
0
0
0
0
0
0
0
0
0
0
0
0
0
0
0
0
0
0
0
0
0
0
0
0
0
0
0
0
0
0
0
0
0
0
0
0
0
0
0
0
0
0
0
0
0
0
0
0
0
0
0
0
0
0
0
0
0
0
0
0
0
0
0
0
0
0
0
0
0
0
0
0
0
0
0
0
0
0
0
0
0
0
0
0
0
0
0
0
0
0
0
0
0
0
0
0
0
0
0
0
0
0
0
0
0
0
0
0
0
0
0
0
0
0
0
0
0
0
0
0
0
0
0
0
0
0
0
0
0
0
0
0
0
0
0
0
0
0
0
0
SCALARS damp_numerical double 1
LOOKUP_TABLE default
0.5
0.5
0.5
0.5
0.5
0.5
0.5
0.5
0.5
0.5
0.5
0.5
0.5
0.5
0.5
0.5
0.5
0.5
0.5
0.5
0.5
0.5
0.5
0.5
0.5
0.5
0.5
0.5
0.5
0.5
0.5
0.5
0.5
0.5
0.5
0.5
0.5
0.5
0.5
0.5
0.5
0.5
0.5
0.5
0.5
0.5
0.5
0.5
0.5
0.5
0.5
0.5
0.5
0.5
0.5
0.5
0.5
0.5
0.5
0.5
0.5
0.5
0.5
0.5
0.5
0.5
0.5
0.5
0.5
0.5
0.5
0.5
0.5
0.5
0.5
0.5
0.5
0.5
0.5
0.5
0.5
0.5
0.5
0.5
0.5
0.5
0.5
0.5
0.5
0.5
0.5
0.5
0.5
0.5
0.5
0.5
0.5
0.5
0.5
0.5
0.5
0.5
0.5
0.5
0.5
0.5
0.5
0.5
0.5
0.5
0.5
0.5
0.5
0.5
0.5
0.5
0.5
0.5
0.5
0.5
0.5
0.5
0.5
0.5
0.5
0.5
0.5
0.5
0.5
0.5
0.5
0.5
0.5
0.5
0.5
0.5
0.5
0.5
0.5
0.5
0.5
0.5
0.5
0.5
0.5
0.5
0.5
0.5
0.5
0.5
0.5
0.5
0.5
0.5
0.5
0.5
0.5
0.5
0.5
0.5
0.5
0.5
0.5
0.5
0.5
0.5
0.5
0.5
0.5
0.5
0.5
0.5
0.5
0.5
0.5
0.5
0.5
0.5
0.5
0.5
0.5
0.5
0.5
0.5
0.5
0.5
0.5
0.5
0.5
0.5
0.5
0.5
0.5
0.5
0.5
0.5
0.5
0.5
0.5
0.5
0.5
0.5
0.5
0.5
0.5
0.5
0.5
0.5
0.5
0.5
0.5
0.5
0.5
0.5
0.5
0.5
0.5
0.5
0.5
0.5
0.5
0.5
0.5
0.5
0.5
0.5
0.5
0.5
0.5
0.5
0.5
0.5
0.5
0.5
0.5
0.5
0.5
0.5
0.5
0.5
0.5
0.5
0.5
0.5
0.5
0.5
0.5
0.5
0.5
0.5
0.5
0.5
0.5
0.5
0.5
0.5
0.5
0.5
0.5
0.5
0.5
0.5
0.5
0.5
0.5
0.5
0.5
0.5
0.5
0.5
0.5
0.5
0.5
0.5
0.5
0.5
0.5
0.5
0.5
0.5
0.5
0.5
0.5
0.5
0.5
0.5
0.5
0.5
0.5
0.5
0.5
0.5
0.5
0.5
0.5
0.5
0.5
0.5
0.5
0.5
0.5
0.5
0.5
0.5
0.5
0.5
0.5
0.5
0.5
0.5
0.5
0.5
0.5
0.5
0.5
0.5
0.5
0.5
0.5
0.5
0.5
0.5
0.5
0.5
0.5
0.5
0.5
0.5
0.5
0.5
0.5
0.5
0.5
0.5
0.5
0.5
0.5
0.5
0.5
0.5
0.5
0.5
0.5
0.5
0.5
0.5
0.5
0.5
0.5
0.5
0.5
0.5
0.5
0.5
0.5
0.5
0.5
0.5
0.5
0.5
0.5
0.5
0.5
0.5
0.5
0.5
0.5
0.5
0.5
0.5
0.5
0.5
0.5
0.5
0.5
SCALARS quat double 4
LOOKUP_TABLE default
0.975851 0.0714733 -0.0378471 0.202916 
0.740735 0.147635 0.637901 0.150324 
0.99571 0.0671439 -0.0400434 -0.0494874 
-0.375327 -0.388757 -0.657189 -0.525453 
0.0432863 0.641234 -0.396166 0.655742 
0.803915 -0.276273 -0.201386 0.48666 
0.660592 -0.245576 0.294183 0.645575 
0.932274 0.0866562 0.314475 0.156401 
-0.10533 0.426705 0.898221 0.00515834 
0.166256 0.0866712 0.0184202 0.982094 
0.927157 -0.0415179 -0.0627631 0.367039 
0.507804 -0.644916 -0.561239 -0.105969 
0.00684148 0.322975 0.0351793 0.945729 
0.596322 0.737496 0.30675 -0.0800216 
0.353722 0.800898 -0.104067 0.471818 
0.996622 0.074685 -0.0238891 -0.024398 
0.635593 0.0498136 -0.0150665 0.770268 
0.974653 0.0832321 -0.0133033 0.207236 
0.967415 0.114953 -0.0866327 0.208299 
-0.850391 0.183288 0.491476 0.0411373 
0.855705 0.0588979 0.499567 -0.121377 
-0.285682 0.788659 -0.380862 0.389033 
0.807425 -0.239589 -0.504206 -0.190887 
0.578949 0.734724 -0.331522 -0.122852 
0.98394 0.105197 -0.0988105 0.105037 
0.979975 0.112209 -0.0777573 0.144954 
-0.943886 -0.0565786 0.260294 -0.195257 
0.996057 0.0170267 0.020882 -0.0845276 
0.509194 -0.452964 -0.480562 0.55191 
-0.0635955 0.435373 -0.055836 0.896263 
0.777223 0.373546 0.389709 0.323287 
0.737088 -0.589156 -0.158069 -0.290877 
0.720646 0.519242 -0.292815 0.354001 
0.199804 0.0452592 -0.0531029 0.977348 
0.499621 0.721545 0.227939 -0.421658 
0.421667 -0.11369 0.0999877 0.894021 
-0.276981 0.278346 0.15616 0.906322 
0.125438 0.535898 0.829959 0.0908142 
0.692213 -0.681745 -0.236413 -0.0131473 
0.511111 0.704086 -0.0364438 -0.491631 
0.974424 0.105574 -0.125416 0.153699 
0.741769 0.191647 -0.0929818 0.635928 
0.987582 -0.0730878 0.00250168 0.139045 
0.0166336 0.819182 0.555235 -0.142755 
0.646961 -0.51307 -0.489671 -0.280041 
0.501376 0.259538 -0.723688 0.39691 
0.589376 -0.219086 0.176566 -0.757273 
-0.931969 0.323153 -0.074856 0.146295 
0.445059 0.736658 -0.384618 0.333657 
-0.821281 0.531314 0.126515 -0.164916 
0.954349 0.246586 -0.162751 -0.0438759 
-0.138707 0.0360326 0.985971 0.0855771 
0.993293 -0.0108756 0.106533 -0.043604 
-0.639306 0.418289 -0.538877 -0.354871 
-0.439006 0.687035 0.370932 -0.444597 
-0.556718 0.376567 0.523419 -0.523731 
0.190622 -0.456076 -0.845209 0.203174 
0.520833 -0.397942 -0.364689 -0.661345 
-0.248851 -0.0886826 0.848261 -0.458979 
0.179058 -0.964918 -0.187389 -0.0419066 
-0.202734 0.493925 0.601762 -0.593986 
-0.837452 -0.0860919 -0.093055 0.531604 
-0.63263 0.543508 0.0876301 0.544701 
-0.171835 0.22783 0.944445 0.163065 
-0.0578372 0.0716253 0.985609 -0.141772 
0.895977 0.247619 -0.366202 -0.0424956 
0.0116384 -0.906138 -0.152087 0.394522 
0.96682 -0.139137 -0.0675314 0.203319 
0.890806 -0.0416467 0.424076 -0.157767 
-0.905451 -0.185733 -0.206583 -0.320913 
0.345369 -0.445349 -0.756305 0.332244 
-0.650972 -0.73499 -0.103952 0.158805 
0.33933 0.323896 -0.126741 -0.874004 
-0.575299 0.760763 -0.291824 -0.0714799 
0.951029 -0.2509 0.0135461 -0.180027 
0.923156 0.243975 -0.257508 -0.148153 
0.994117 0.0519018 0.0850045 0.0425663 
0.99934 -0.0230885 0.0207898 0.0188094 
-0.956195 -0.272166 0.105999 0.019536 
-0.336927 -0.0823359 -0.410119 -0.843507 
0.800585 0.435609 -0.222506 -0.346121 
0.427828 0.210999 -0.139127 0.867805 
-0.948384 -0.0198316 -0.285277 0.137086 
-0.0732539 0.796029 -0.227987 0.555871 
0.999159 -0.00611202 0.00988568 0.0393332 
0.84179 -0.356289 -0.174067 0.366264 
-0.552642 -0.781197 -0.266728 -0.114776 
0.133232 0.142487 -0.3137 -0.929268 
0.422741 0.842348 0.072997 -0.326208 
-0.131046 0.463749 -0.620203 0.61896 
0.94317 -0.0994003 0.255192 -0.188219 
-0.684572 0.667528 -0.289969 -0.04105 
0.943357 -0.121226 -0.197369 0.237545 
0.880928 -0.270362 0.3828 0.0658364 
0.799072 -0.07846 0.454662 -0.385501 
0.516841 -0.657954 -0.0552458 -0.544903 
0.462437 -0.685533 0.426507 0.366454 
0.427676 0.0496738 -0.677883 0.595903 
-0.638913 0.55916 -0.0621396 -0.524661 
0.992363 -0.0203089 -0.0715313 -0.0984235 
0.844016 0.0951267 0.0119188 -0.52768 
0.606999 -0.315052 0.630092 -0.367802 
0.408163 0.402024 -0.809266 0.129883 
-0.374564 -0.832181 -0.16437 -0.374378 
-0.517613 -0.53707 -0.460898 -0.480838 
0.912437 -0.170096 0.207872 0.308731 
-0.683981 0.616102 0.212923 -0.327494 
0.837704 -0.380267 0.0240459 -0.391242 
0.783306 0.602339 -0.0545796 -0.143667 
0.00144334 0.20777 -0.975094 0.0775908 
0.570026 -0.58389 -0.261826 0.515354 
0.822258 0.323332 0.420969 0.205264 
0.0062692 -0.293394 0.344941 -0.89157 
0.946229 -0.0911936 0.304401 -0.0606178 
-0.231105 0.269859 0.0543561 0.933173 
0.98284 -0.0674052 0.0874655 0.147755 
0.178932 -0.783462 0.593974 -0.0369574 
0.548365 -0.146417 -0.289487 0.77075 
0.894695 0.0947099 0.086146 0.427937 
0.28989 0.173231 -0.817828 0.465953 
0.0908006 0.15502 0.482362 -0.857351 
-0.123984 -0.268062 -0.702251 0.647777 
0.0135704 -0.577122 -0.49189 -0.65176 
-0.938781 -0.261123 -0.142086 0.174114 
0.857557 -0.445789 0.0833027 0.242753 
0.657845 0.341418 -0.663347 -0.103174 
-0.0674405 0.195728 0.844934 0.493183 
0.595742 0.438742 -0.349937 -0.574578 
-0.432617 -0.237164 0.771349 0.402017 
0.502197 -0.285712 0.748336 0.325821 
-0.1576 0.436783 0.850741 -0.246215 
-0.559938 -0.741008 0.337332 0.15357 
0.752478 0.170211 0.0187719 0.635966 
0.62129 0.602962 -0.49956 0.0295826 
0.00364963 -0.908395 0.321585 0.267187 
0.536412 -0.31258 0.0958668 0.778052 
0.231377 0.703229 0.57175 0.353603 
-0.638657 0.464236 0.362809 0.494947 
0.297463 0.848282 -0.12792 -0.41901 
0.228596 0.783807 -0.577287 -0.0113659 
0.195328 0.385187 -0.889946 0.146541 
0.557497 -0.338471 0.225452 0.723745 
0.241814 0.527642 0.36342 0.728729 
0.961155 -0.197136 -0.1539 0.116763 
0.0329754 -0.549515 -0.768763 -0.325499 
-0.166836 -0.913818 0.286579 -0.234468 
0.896918 -0.198017 0.388936 -0.0711013 
0.103674 -0.797915 0.0164548 -0.59356 
-0.12787 -0.617013 -0.0750204 -0.772863 
-0.358623 0.930337 0.0530339 0.0552214 
-0.294816 -0.362859 0.759994 -0.451472 
-0.805044 0.224566 0.259479 -0.483885 
0.756108 -0.291167 0.171886 -0.560338 
-0.940329 -0.0903968 0.0222168 -0.327287 
-0.493596 -0.240039 -0.548733 0.630585 
0.445457 -0.0819154 -0.745704 0.488655 
0.640238 0.31386 -0.221382 -0.665264 
0.467993 -0.417305 -0.154841 0.763455 
0.894063 0.200741 -0.135744 0.376732 
-0.170757 0.168376 -0.894653 0.376945 
-0.552846 0.792968 0.256046 -0.0020306 
-0.226438 -0.400809 -0.887699 -0.00828301 
-0.79868 -0.171765 -0.207614 -0.538055 
0.426862 -0.130498 -0.837488 -0.315235 
-0.403109 -0.273463 0.865825 0.114317 
0.857905 0.159187 -0.482981 0.0734064 
0.587339 -0.0812866 0.068643 0.802318 
-0.0557117 0.942658 0.0859044 -0.317666 
-0.261825 0.937751 0.192692 0.122228 
-0.203953 0.785235 -0.00394532 -0.584632 
-0.331791 -0.428718 -0.325978 0.774502 
0.198208 0.735811 0.553755 0.335635 
0.684028 -0.229029 0.516849 -0.460997 
0.195998 -0.870951 0.195204 0.406108 
0.834287 -0.389087 -0.38627 -0.0580736 
0.688327 -0.567642 0.178913 -0.414703 
-0.364694 -0.917797 0.153904 0.0309931 
0.83239 -0.517534 -0.142893 -0.13736 
-0.872398 -0.403106 -0.254955 0.106883 
-0.160825 0.00100288 -0.785465 -0.597644 
0.736311 -0.508612 -0.0342861 0.444954 
0.644963 -0.568613 0.485943 -0.15672 
-0.491534 0.77453 0.0481253 -0.395198 
-0.683015 0.519425 0.332099 0.391662 
-0.333008 0.740464 0.582758 -0.0348048 
0.867596 0.256162 0.367467 0.215932 
0.195433 -0.777532 0.446812 0.397 
0.445589 0.748333 0.244466 0.426244 
0.954809 -0.27729 -0.0769108 0.0744005 
0.395388 0.747467 -0.0226634 0.533337 
0.961183 -0.0799872 0.0310407 -0.262234 
0.372215 0.630623 -0.104182 0.672991 
0.436102 -0.31391 0.359424 -0.762948 
0.910229 -0.333756 -0.242771 -0.0339398 
0.739497 0.210486 -0.337714 0.542945 
-0.800935 0.364739 -0.474673 0.0123788 
-0.35933 0.438579 -0.474764 0.673148 
-0.237227 0.73178 0.534031 -0.350759 
-0.959865 0.102756 -0.117326 0.233097 
-0.214218 0.820938 0.484916 -0.212197 
0.235152 -0.788064 0.441773 -0.358461 
-0.81026 0.427884 0.227267 -0.329763 
-0.17581 -0.525898 0.826302 -0.0987324 
0.685047 -0.279502 0.653436 -0.160034 
0.349141 0.413504 0.328968 0.773883 
-0.231866 0.328959 0.785506 0.470111 
-0.121117 0.23448 0.43356 0.861612 
-0.289188 -0.520328 -0.469516 -0.652062 
0.588684 0.785595 0.16633 0.0928727 
0.108592 -0.262735 -0.609442 0.740108 
0.977589 -0.149936 -0.132948 0.0645205 
0.916808 0.375208 -0.0967455 0.0965471 
0.279542 0.287994 0.83503 -0.376352 
-0.658648 0.440602 0.0115615 0.609852 
0.877962 0.119307 -0.0379729 0.462068 
0.127056 -0.00419183 0.968626 0.213548 
0.134219 0.883104 -0.139133 0.427499 
0.641763 -0.169754 0.251106 -0.704464 
0.641433 -0.674065 -0.356866 -0.082743 
0.821989 0.0464001 0.197822 -0.532022 
0.764183 -0.420015 -0.337944 -0.354126 
0.806688 -0.338338 0.418141 -0.244827 
0.845752 0.159793 0.404618 0.308956 
0.308252 -0.819196 0.430133 -0.221099 
0.969804 0.0171518 0.243265 0.00298248 
0.791849 0.00361061 -0.109067 -0.600887 
-0.132092 -0.0800569 -0.828176 0.538764 
-0.415611 0.264037 -0.813187 -0.310289 
0.192776 0.338511 -0.842787 0.371427 
-0.823305 0.11023 0.00699767 0.556749 
0.880384 -0.175091 0.143383 0.416783 
0.0821595 0.50275 -0.571691 -0.643165 
0.485433 -0.294837 -0.61938 0.542028 
0.203536 0.581053 -0.700253 0.36138 
0.153078 0.686815 0.636804 -0.315171 
0.781324 0.268501 0.542112 0.153476 
0.208019 -0.268873 0.313486 -0.886658 
0.537024 0.100964 0.510939 0.663591 
0.866318 -0.167749 0.0705592 0.465161 
0.0735014 -0.345744 -0.773154 -0.526585 
0.796213 0.381823 0.288019 -0.370543 
0.231378 0.864068 -0.115011 0.431998 
0.0190764 -0.28242 -0.714808 -0.639473 
0.0646854 0.97334 0.0773598 -0.206013 
0.466641 0.764218 -0.122331 0.428079 
0.782475 0.293662 -0.283218 0.470408 
-0.15301 0.0735976 0.0476538 -0.984327 
-0.194219 0.137616 0.862393 0.446788 
0.389786 -0.800716 -0.273221 -0.363689 
0.591473 0.776274 0.216145 -0.028983 
0.00984218 0.478456 -0.79347 -0.376017 
0.163432 -0.0192898 0.757385 0.631891 
0.373502 0.846542 0.362376 0.112016 
-0.387311 0.752566 -0.487662 0.214056 
0.230942 -0.901683 -0.328899 -0.159556 
0.942102 -0.0155607 0.168219 0.289663 
-0.235485 -0.801856 -0.530808 0.140772 
0.853836 -0.271823 0.417802 0.15006 
0.638796 -0.0400014 0.707325 -0.300053 
-0.530387 0.521846 -0.274642 0.609047 
0.850519 0.335405 0.325066 0.241771 
0.638425 -0.495607 0.241114 0.537262 
0.825152 0.537109 0.00331308 0.175004 
-0.709377 0.462869 0.3759 0.375814 
0.192246 0.942555 0.264568 0.068084 
-0.330338 -0.580887 -0.0735998 -0.74029 
-0.641013 -0.10022 -0.131036 -0.749591 
0.760217 -0.407405 -0.391585 0.320549 
0.805522 0.50924 0.291213 0.0836933 
0.441959 -0.6922 0.562457 0.0957752 
0.973105 -0.196237 0.104563 0.0602074 
0.497974 -0.206192 0.773662 0.333099 
0.755298 -0.137114 0.174513 0.616661 
0.0101996 -0.431895 0.786412 0.441496 
0.960098 -0.196754 -0.198704 -0.00395394 
0.534518 -0.198156 0.80923 0.142026 
-0.295574 -0.713294 0.549275 0.319601 
-0.145877 0.86376 0.143775 0.4604 
0.851254 0.272666 -0.239698 -0.3789 
0.746964 0.310685 -0.58574 -0.0492702 
0.500148 -0.293188 0.553606 -0.59784 
-0.226413 0.794535 0.544013 0.146634 
0.401867 -0.677776 -0.609765 0.0854934 
0.000966627 -0.529738 0.607006 0.592385 
-0.467242 0.302468 -0.0972012 0.825076 
0.851465 0.303564 0.136146 0.405364 
-0.612201 -0.745207 -0.229355 -0.131425 
-0.263892 0.325327 0.82128 0.387327 
-0.45489 0.512784 0.541041 0.487239 
0.866674 -0.0532913 -0.0345925 0.494812 
0.402347 -0.754662 -0.13264 -0.501008 
-0.295112 -0.136207 -0.915457 0.237268 
0.703789 -0.0822302 -0.614426 0.346988 
0.611326 0.283658 0.461863 0.576629 
-0.522927 0.599881 0.6054 0.0134576 
0.94426 0.324259 -0.0393333 -0.0410034 
0.19519 0.601214 0.351761 0.69044 
0.59972 -0.0463522 -0.387221 0.698746 
-0.19775 0.884703 -0.402334 0.127764 
0.292297 0.917192 0.246902 0.111179 
-0.0376613 0.875798 0.481199 -0.00278536 
0.0635542 0.942542 0.314282 -0.0938174 
0.811953 -0.0801901 0.0617885 0.574877 
-0.144115 0.135158 0.474343 -0.857882 