# vtk DataFile Version 2.0
Generated by NetDEM
ASCII 
DATASET POLYDATA
POINTS 500 double
-0.421607 -0.393181 -0.462294 
-0.449991 -0.189838 -0.450032 
-0.405184 -0.0123886 -0.462883 
-0.449994 0.107611 -0.450047 
-0.450009 0.349929 -0.450036 
-0.293382 -0.433086 -0.456845 
-0.354907 -0.226064 -0.450013 
-0.188311 -0.0055189 -0.450025 
-0.173243 0.178825 -0.463963 
-0.256046 0.369378 -0.464453 
-0.0459215 -0.40338 -0.46398 
-0.151921 -0.130035 -0.450013 
-0.0514351 -0.0919539 -0.450038 
0.0393235 0.180736 -0.453057 
-0.0274938 0.32026 -0.443955 
0.192236 -0.408122 -0.464009 
0.165933 -0.20839 -0.46331 
0.171395 -0.00190598 -0.463146 
0.162302 0.203732 -0.463943 
0.293696 0.407609 -0.420725 
0.448127 -0.412317 -0.450055 
0.435085 -0.293132 -0.45001 
0.343165 -0.0123345 -0.450053 
0.37416 0.087009 -0.450024 
0.37241 0.441107 -0.464893 
-0.439343 -0.400595 -0.393582 
-0.449999 -0.278485 -0.403772 
-0.40854 -0.0120733 -0.391289 
-0.44222 0.178637 -0.380106 
-0.449447 0.45006 -0.449985 
-0.350491 -0.39083 -0.394948 
-0.268243 -0.103214 -0.450007 
-0.16519 -0.101966 -0.225342 
-0.304609 0.165995 -0.465061 
-0.153997 0.406653 -0.452909 
-0.0992659 -0.36259 -0.407733 
0.297736 -0.251523 -0.151287 
-0.0522882 -0.0156441 -0.316042 
0.0322799 0.261099 -0.452329 
0.128679 0.303405 -0.445409 
0.195119 -0.42375 -0.392343 
0.167771 -0.211869 -0.391684 
0.177195 0.0266119 -0.38752 
0.195399 0.113843 -0.454697 
0.287523 0.365297 -0.330345 
0.373648 -0.450016 -0.395039 
0.436226 -0.353363 -0.370183 
0.268734 -0.212386 -0.450027 
0.44963 0.152728 -0.450009 
0.425762 0.341055 -0.456668 
-0.437011 -0.440477 -0.330809 
-0.277016 -0.207789 -0.390029 
-0.298689 -0.000503767 -0.438897 
-0.285772 0.276157 -0.45001 
-0.449157 0.279658 -0.378822 
-0.198388 -0.378219 -0.452951 
0.198489 -0.354464 -0.3098 
-0.246336 -0.0443075 -0.214024 
-0.169643 0.0797934 -0.451701 
-0.349109 0.334159 -0.344368 
0.0499152 -0.439363 -0.450959 
0.206535 -0.275961 -0.195749 
0.203348 0.0532136 -0.225936 
-0.0379672 0.225652 -0.396827 
0.253824 0.333106 -0.4636 
0.184009 -0.449121 -0.323433 
0.05496 -0.100828 -0.451601 
0.159647 0.0691122 -0.330404 
0.267982 0.0659554 -0.442072 
0.114876 0.134386 -0.391817 
0.286048 -0.45 -0.450007 
0.372813 -0.209597 -0.450065 
0.375763 -0.109146 -0.450059 
0.44947 0.21833 -0.369173 
0.436252 0.254379 -0.460523 
-0.429754 -0.452563 -0.24602 
-0.196294 -0.15486 -0.363918 
-0.24091 0.00432625 -0.3563 
-0.26351 0.0933258 -0.410745 
-0.346256 0.143266 -0.368894 
-0.174281 -0.44661 -0.412479 
-0.123195 -0.0540618 -0.391685 
-0.222738 0.0492101 -0.244482 
-0.0560373 0.131517 -0.448892 
-0.365882 0.38115 -0.414693 
0.0744716 -0.460057 -0.352328 
0.445137 -0.34415 -0.108273 
-0.199052 -0.225761 -0.450015 
0.0151328 0.0479224 -0.450594 
0.0705145 0.398069 -0.414642 
0.255431 -0.444039 -0.254732 
0.148126 -0.327348 -0.400856 
0.11258 0.0760574 -0.274219 
0.266358 0.172508 -0.43595 
0.140462 0.450003 -0.450019 
0.350579 -0.309156 -0.399006 
0.449897 -0.104442 -0.38314 
0.385793 0.143045 -0.35259 
0.331028 0.31416 -0.410248 
0.43809 0.370832 -0.378547 
-0.382101 -0.439301 -0.175268 
-0.364605 -0.349846 -0.143027 
-0.295583 -0.0429507 -0.293985 
-0.357515 0.0716701 -0.437799 
-0.450001 0.436253 -0.350977 
-0.292589 -0.428464 -0.355295 
-0.0757185 -0.142773 -0.367453 
-0.240834 0.0339803 -0.14732 
-0.00146028 -0.0278564 -0.388637 
-0.431861 0.251119 -0.458677 
0.0746854 -0.347793 -0.440811 
0.356847 -0.204275 -0.085933 
0.0559637 -0.122392 -0.362303 
0.0283204 0.043454 -0.360229 
-0.00486589 0.432437 -0.462744 
0.296252 -0.388225 -0.230856 
0.256453 -0.31198 -0.446328 
0.0297619 0.0687212 -0.269754 
0.255374 0.246771 -0.386999 
0.344256 0.450024 -0.28057 
0.297064 -0.392203 -0.366908 
0.450102 -0.212048 -0.386708 
0.449822 -0.0301058 -0.450045 
0.348528 0.215707 -0.410326 
0.402102 0.452014 -0.375787 
-0.461278 -0.451715 -0.137068 
-0.320441 -0.141856 -0.322256 
-0.450987 -0.0272359 -0.322525 
-0.253788 0.198152 -0.396172 
-0.30201 0.449963 -0.388935 
-0.169405 -0.386897 -0.348827 
-0.0801003 -0.199625 -0.45001 
-0.205325 -0.165713 -0.1596 
-0.136796 0.150882 -0.402202 
-0.226412 0.340565 -0.395543 
-0.046264 -0.283065 -0.451278 
0.274316 -0.323835 -0.0862263 
0.450003 0.0533971 -0.177589 
0.0321634 0.127126 -0.33717 
-0.117981 0.312684 -0.414633 
0.133191 -0.451774 -0.261885 
0.239478 -0.142041 -0.404222 
0.0994822 -0.0230616 -0.241096 
0.196041 0.306543 -0.344153 
0.19844 0.386895 -0.398527 
0.450014 -0.444213 -0.330704 
0.32668 -0.17113 -0.37011 
0.254528 -0.0585823 -0.450022 
0.449995 0.0538655 -0.393895 
0.440579 0.409718 -0.302151 
-0.431947 -0.457954 -0.0257577 
-0.237393 -0.175723 -0.27517 
-0.42309 -0.105097 -0.411303 
-0.209036 0.269189 -0.341889 
-0.358055 0.240165 -0.391028 
-0.169988 -0.288758 -0.370471 
0.142348 -0.449991 -0.119004 
-0.302503 0.36951 -0.199267 
-0.106968 0.274598 -0.334268 
-0.222885 0.462976 -0.451456 
0.00601197 -0.314982 -0.360129 
0.113556 -0.242723 -0.16574 
-0.187536 -0.0665837 -0.31614 
0.0139211 0.203605 -0.30798 
0.0194758 0.299117 -0.355869 
0.0493026 -0.418217 -0.278131 
0.142353 -0.102603 -0.40451 
0.252545 -0.11542 -0.26899 
0.24628 0.188893 -0.320474 
0.136976 0.448735 -0.349545 
0.384381 -0.230007 -0.31359 
0.350351 -0.0638298 -0.364626 
0.321029 0.0490862 -0.374274 
0.416686 0.299302 -0.310272 
0.446752 0.379884 -0.218279 
-0.30035 -0.437096 -0.12732 
-0.449996 -0.102654 -0.272388 
-0.358581 0.00942333 -0.281243 
-0.450014 0.0727518 -0.356316 
-0.414336 0.266082 -0.286114 
-0.281458 -0.300558 -0.448061 
-0.182332 -0.26596 -0.253033 
-0.141808 0.39864 -0.0937735 
-0.121631 0.189149 -0.337447 
-0.132017 0.440821 -0.359567 
-0.00665364 -0.421485 -0.365961 
0.0166312 -0.088201 -0.276969 
0.0357004 -0.208378 -0.450007 
-0.0226239 0.273899 -0.260477 
-0.00207472 0.402048 -0.371903 
0.0608029 -0.440334 -0.177415 
0.104747 -0.0440554 -0.350078 
0.284817 -0.159203 -0.199139 
0.199763 0.136377 -0.277917 
0.245409 0.449993 -0.297823 
0.449991 -0.305562 -0.283391 
0.450023 -0.150226 -0.294298 
0.366101 0.0375419 -0.285784 
0.325072 0.261334 -0.322739 
0.384326 0.429415 -0.20719 
-0.250877 -0.445276 -0.1987 
-0.434007 0.22419 -0.19749 
-0.289511 0.186164 -0.203102 
-0.149376 0.0580125 -0.352306 
-0.361216 0.449993 -0.30692 
-0.220337 -0.341502 -0.27183 
-0.0348853 -0.232345 -0.349684 
0.0182179 -0.260351 -0.269709 
-0.101841 0.110006 -0.254218 
-0.160104 0.348106 -0.332709 
-0.0470973 -0.379344 -0.302919 
-0.20836 -0.0902159 0.0926617 
-0.0356964 0.208418 -0.178646 
-0.059758 0.0987187 -0.340698 
0.108317 0.351919 -0.340259 
0.232442 -0.428415 -0.160143 
0.219583 -0.199382 -0.316755 
0.289905 -0.101514 -0.138891 
0.153983 0.22112 -0.302974 
0.188608 0.361605 -0.270962 
0.403417 -0.393985 -0.257919 
0.440192 -0.223577 -0.226999 
0.445673 -0.0211816 -0.327961 
0.301173 0.113812 -0.300698 
0.412926 0.401028 -0.13258 
-0.253986 -0.335951 -0.182196 
-0.432106 -0.320583 -0.314856 
-0.4411 0.345572 -0.134142 
-0.344404 0.326164 -0.0758572 
-0.448479 0.410594 -0.0351602 
-0.141067 -0.41898 -0.28014 
-0.0499149 0.140114 -0.0900219 
-0.25609 -0.171532 -0.0736607 
-0.178836 0.174001 -0.210128 
-0.158642 0.340613 -0.226625 
-0.0711075 -0.386574 -0.22105 
-0.141992 -0.139839 -0.0494627 
-0.117532 -0.015074 -0.240268 
-0.0168813 0.108448 -0.208862 
0.0309931 0.447365 -0.286862 
0.295363 -0.331706 -0.18363 
0.254113 -0.306174 -0.356325 
0.349803 -0.0431215 -0.0940217 
0.144382 0.27671 -0.239515 
0.212876 0.387518 -0.164028 
0.355592 -0.450017 -0.186753 
0.449344 -0.198964 -0.125109 
0.344248 0.125865 -0.0314973 
0.447445 0.152901 -0.187393 
0.423403 0.367856 -0.0525132 
-0.326568 -0.325777 -0.313498 
-0.127778 -0.198596 -0.302862 
-0.329003 -0.012477 -0.175273 
-0.223619 0.189099 -0.283855 
-0.419631 0.448717 -0.22551 
-0.254691 -0.431315 -0.290431 
0.131857 -0.345716 -0.235754 
-0.307471 0.253663 -0.147781 
-0.244766 0.298844 -0.220659 
-0.147069 0.44216 -0.257475 
0.00255207 -0.375953 -0.187033 
0.45002 -0.392003 -0.0206039 
0.0753226 0.442705 -0.194806 
-0.0754575 0.405707 -0.329622 
-0.0424221 0.44941 -0.230622 
0.357294 -0.386557 -0.112275 
0.371637 -0.096814 -0.178672 
0.184026 -0.022565 -0.294063 
0.215499 0.20284 -0.21558 
0.0952273 0.245355 -0.371538 
0.350507 -0.309259 -0.262666 
0.350601 -0.150047 -0.264077 
0.449999 0.0910394 -0.295746 
0.450015 0.209817 -0.269568 
0.404268 0.453625 -0.0425646 
-0.342467 -0.394861 -0.0237511 
-0.14877 -0.343717 -0.199817 
-0.435365 -0.113991 -0.187909 
-0.450002 0.0992422 -0.199926 
-0.337828 0.201733 -0.288213 
-0.150995 -0.445479 -0.198142 
-0.0831415 -0.286429 -0.280772 
-0.225585 0.448354 -0.32446 
-0.282481 0.31034 -0.291169 
-0.226818 0.434402 -0.198449 
0.0530468 -0.402067 -0.0986976 
-0.11781 0.45 0.102805 
0.036708 0.184369 -0.114009 
-0.0724033 0.310185 -0.21429 
0.0106975 0.367115 -0.22706 
0.267631 -0.421016 -0.063635 
0.0326592 -0.0956276 -0.0381873 
0.143416 -0.0429613 -0.161247 
0.284916 0.177337 -0.160499 
0.0496385 0.260053 -0.193517 
0.390058 -0.290448 -0.172146 
0.449972 -0.128772 -0.196589 
0.325748 -0.0526416 -0.268359 
0.449933 0.283223 -0.20166 
0.301492 0.414016 -0.110411 
-0.287299 -0.348665 -0.0815037 
-0.431128 0.00297057 -0.22557 
-0.393766 -0.276065 -0.112023 
-0.429637 0.14257 -0.2877 
-0.450004 0.450004 -0.127053 
-0.11322 -0.435278 -0.106426 
-0.125416 -0.326119 -0.0982855 
-0.284233 0.0881079 -0.313073 
-0.135833 0.275057 -0.134598 
-0.240671 0.389433 -0.116799 
-0.0123013 -0.41865 -0.0253297 
-0.410949 -0.181727 -0.337017 
-0.00241046 -0.00102956 -0.230478 
-0.0386095 0.295545 -0.123613 
-0.00883138 0.444549 -0.143446 
0.145475 -0.37398 -0.045804 
0.447369 0.00421942 0.0036997 
0.0740123 -0.0262601 -0.0978323 
0.30423 0.33303 -0.245299 
0.281482 0.449109 -0.202749 
0.373804 -0.449948 -0.0499588 
0.429314 -0.050562 0.0717594 
0.241016 -0.0526366 -0.351117 
0.347497 0.257724 -0.210832 
0.438418 0.447715 0.0463209 
-0.351347 -0.199002 -0.0688504 
-0.387773 -0.295236 -0.223523 
-0.405891 0.0973429 -0.125297 
-0.383878 0.31148 -0.202405 
-0.44999 0.359571 -0.286747 
-0.169408 -0.439196 0.0156934 
-0.070831 -0.126602 -0.247417 
-0.222471 0.295663 -0.115833 
-0.101735 0.392714 -0.181012 
-0.0723794 0.437754 -0.062905 
-0.0858721 -0.450521 0.00368496 
0.0794336 -0.183058 -0.286362 
-0.0767952 0.0629869 -0.147755 
0.0386644 0.252085 -0.0593883 
0.0108185 0.422297 -0.0752883 
0.160494 -0.34529 -0.125223 
0.179435 -0.190373 -0.234897 
0.109795 0.163405 -0.235804 
0.309361 0.219698 -0.0778388 
0.169101 0.450046 -0.228682 
0.449999 -0.419895 -0.173347 
0.320468 -0.259219 -0.0107185 
0.420884 -0.025839 -0.231184 
0.364964 0.164572 -0.242718 
0.414345 0.268595 0.0715683 
-0.42009 -0.379547 0.0239474 
-0.450007 -0.223615 -0.255061 
-0.364918 0.214646 -0.0967746 
-0.448392 0.0493749 -0.0376449 
-0.450027 0.18372 -0.107477 
-0.216206 -0.380143 -0.0339646 
-0.280193 -0.0974405 -0.136375 
-0.334029 -0.106243 -0.225602 
-0.188252 0.350202 -0.0300117 
-0.130191 0.401532 0.00526835 
0.0322867 -0.190868 -0.151416 
-0.153702 -0.251342 -0.158347 
0.219885 0.116371 -0.127104 
0.0900521 0.333075 -0.111814 
-0.02018 0.439857 0.0174334 
0.0902448 -0.21931 -0.0619572 
0.455715 -0.0642245 -0.123955 
0.282619 0.0654949 -0.0563885 
0.176959 0.223417 -0.135373 
0.100905 0.330819 0.0275835 
0.396508 -0.0872228 -0.036235 
0.450002 -0.266852 -0.0449947 
0.360175 0.0121972 -0.161442 
0.422433 0.111008 -0.100124 
0.321175 0.324596 -0.145841 
-0.42317 -0.193645 -0.16522 
-0.450006 -0.223169 -0.0676441 
-0.4024 -0.0139791 -0.129449 
-0.450001 0.276201 0.0267073 
-0.340039 0.45 -0.153296 
-0.234244 -0.301125 0.036096 
-0.269067 -0.264767 -0.0399545 
-0.329245 0.0667097 -0.0790215 
-0.122162 0.217806 -0.0661224 
-0.123945 0.187764 0.0010155 
0.0268683 -0.309343 -0.0503773 
-0.115193 -0.103612 -0.138744 
0.107565 0.113803 -0.112021 
-0.159111 0.0994908 -0.143154 
0.0463054 0.399886 0.0804033 
0.0371253 -0.289211 -0.156795 
0.281816 -0.0709514 -0.0365484 
0.263079 0.0264515 -0.12673 
0.181972 0.286721 -0.0610137 
0.111727 0.349669 -0.199559 
0.322614 -0.34372 0.0427076 
0.257867 -0.180737 -0.0928848 
0.419027 0.191626 -0.0407081 
0.400713 0.243325 -0.124308 
0.436084 0.284264 -0.0371414 
-0.336017 -0.334469 0.0549806 
-0.339578 -0.239249 -0.297038 
-0.451485 -0.0780546 -0.0698154 
-0.45 0.117585 0.0632584 
-0.272753 0.369641 -0.0213071 
-0.0641337 -0.187838 -0.185508 
-0.177126 -0.232489 -0.0629848 
-0.261908 -0.0252952 -0.0695892 
-0.28068 0.224084 -0.0393218 
-0.207702 0.416608 0.0496734 
0.200146 -0.0643073 -0.11119 
-0.00119007 -0.0867026 -0.178583 
-0.135503 -0.0281553 0.0636511 
-0.0312713 0.247231 0.00191308 
-0.0772503 0.343209 0.0522944 
0.313845 -0.441556 0.047238 
0.330998 -0.217491 0.0740049 
0.173058 0.035748 -0.141043 
0.263287 0.281999 -0.0280384 
0.237779 0.449998 -0.0462264 
0.449997 -0.170091 -0.0197687 
0.317816 0.354449 -0.0395563 
0.449991 0.0888412 -0.00660238 
0.435594 0.166544 0.0546678 
0.374145 0.359128 0.0543057 
-0.400892 -0.376485 0.115219 
-0.413497 -0.262509 0.0167213 
-0.192313 -0.0609232 -0.120029 
-0.450004 0.279549 -0.0752138 
-0.3844 0.350333 0.0125497 
-0.206356 -0.391026 0.0660299 
-0.287161 -0.0504127 0.0282255 
-0.0435112 -0.0245066 -0.112604 
-0.274749 0.132135 -0.128943 
-0.287335 0.392346 0.100482 
0.187179 -0.452761 -0.0164517 
0.114463 -0.14023 -0.173457 
0.0269047 0.0565346 -0.130048 
-0.0855786 0.107125 0.0331316 
-0.0419788 0.400734 0.117384 
0.312274 -0.42129 0.144509 
0.200177 -0.120649 -0.0197468 
0.102612 0.19431 -0.0501043 
0.260506 0.171485 0.104747 
0.15135 0.415674 -0.0893299 
0.411554 -0.450005 0.051187 
0.337334 -0.158882 0.00141466 
-0.217606 0.0993742 -0.0705902 
0.351062 0.222815 0.0256833 
0.322937 0.447382 0.0205489 
-0.441762 -0.449899 0.117976 
-0.277014 0.0459896 0.00369511 
-0.384352 -0.0164675 -0.0211638 
-0.410374 0.144117 -0.0246742 
-0.450003 0.413786 0.0647804 
-0.293635 -0.445697 0.041041 
-0.23666 -0.156435 0.0232551 
-0.17781 0.0346914 -0.00161812 
-0.321422 0.127079 0.0105876 
-0.390668 0.403137 0.151384 
0.234385 -0.235919 0.0872431 
-0.0462529 -0.143379 -0.0781058 
-0.0930763 0.0581462 -0.0492413 
0.0198037 0.340906 -0.0252271 
0.011914 0.303529 0.072014 
0.19328 -0.2505 -0.0977127 
0.209429 -0.27802 -0.00280915 
0.182224 -0.00341323 -0.0458124 
0.189119 0.172098 -0.0353304 
0.0872673 0.425524 -0.0120691 
0.420131 -0.349239 0.0646857 
0.449433 -0.148325 0.0778283 
0.343634 0.00548732 -0.00859722 
0.267758 0.168122 0.0174307 
0.45561 0.35189 0.0904736 
-0.313995 -0.299347 0.120226 
-0.195109 -0.0662574 -0.00745975 
-0.429526 -0.0200432 0.0777186 
-0.365592 0.222784 0.0178622 
-0.354636 0.448971 -0.0543736 
-0.168573 -0.238554 0.0312346 
-0.185041 -0.186213 0.108145 
-0.0888128 -0.0386652 -0.0245727 
-0.30212 0.29905 0.0457976 
-0.208051 0.240273 0.0283253 
-0.0430173 -0.118164 0.0143339 
-0.0423851 -0.241839 -0.122108 
0.0138018 0.00753485 -0.037161 
0.232188 -0.167008 0.0297322 
0.0121186 0.448293 0.187226 
0.215589 -0.368612 0.0368419 
0.444206 -0.291745 0.128513 
0.301083 0.0627371 0.0553367 
0.183804 0.250019 0.0413499 
0.186333 0.372866 -0.00298005 
0.402485 -0.40976 0.142301 
0.450001 -0.206362 0.159257 
0.321374 -0.0695002 0.0584463 
0.398837 0.0754007 0.0782614 
0.239624 0.428337 0.0683326 
VERTICES 500 1000
1 0
1 1
1 2
1 3
1 4
1 5
1 6
1 7
1 8
1 9
1 10
1 11
1 12
1 13
1 14
1 15
1 16
1 17
1 18
1 19
1 20
1 21
1 22
1 23
1 24
1 25
1 26
1 27
1 28
1 29
1 30
1 31
1 32
1 33
1 34
1 35
1 36
1 37
1 38
1 39
1 40
1 41
1 42
1 43
1 44
1 45
1 46
1 47
1 48
1 49
1 50
1 51
1 52
1 53
1 54
1 55
1 56
1 57
1 58
1 59
1 60
1 61
1 62
1 63
1 64
1 65
1 66
1 67
1 68
1 69
1 70
1 71
1 72
1 73
1 74
1 75
1 76
1 77
1 78
1 79
1 80
1 81
1 82
1 83
1 84
1 85
1 86
1 87
1 88
1 89
1 90
1 91
1 92
1 93
1 94
1 95
1 96
1 97
1 98
1 99
1 100
1 101
1 102
1 103
1 104
1 105
1 106
1 107
1 108
1 109
1 110
1 111
1 112
1 113
1 114
1 115
1 116
1 117
1 118
1 119
1 120
1 121
1 122
1 123
1 124
1 125
1 126
1 127
1 128
1 129
1 130
1 131
1 132
1 133
1 134
1 135
1 136
1 137
1 138
1 139
1 140
1 141
1 142
1 143
1 144
1 145
1 146
1 147
1 148
1 149
1 150
1 151
1 152
1 153
1 154
1 155
1 156
1 157
1 158
1 159
1 160
1 161
1 162
1 163
1 164
1 165
1 166
1 167
1 168
1 169
1 170
1 171
1 172
1 173
1 174
1 175
1 176
1 177
1 178
1 179
1 180
1 181
1 182
1 183
1 184
1 185
1 186
1 187
1 188
1 189
1 190
1 191
1 192
1 193
1 194
1 195
1 196
1 197
1 198
1 199
1 200
1 201
1 202
1 203
1 204
1 205
1 206
1 207
1 208
1 209
1 210
1 211
1 212
1 213
1 214
1 215
1 216
1 217
1 218
1 219
1 220
1 221
1 222
1 223
1 224
1 225
1 226
1 227
1 228
1 229
1 230
1 231
1 232
1 233
1 234
1 235
1 236
1 237
1 238
1 239
1 240
1 241
1 242
1 243
1 244
1 245
1 246
1 247
1 248
1 249
1 250
1 251
1 252
1 253
1 254
1 255
1 256
1 257
1 258
1 259
1 260
1 261
1 262
1 263
1 264
1 265
1 266
1 267
1 268
1 269
1 270
1 271
1 272
1 273
1 274
1 275
1 276
1 277
1 278
1 279
1 280
1 281
1 282
1 283
1 284
1 285
1 286
1 287
1 288
1 289
1 290
1 291
1 292
1 293
1 294
1 295
1 296
1 297
1 298
1 299
1 300
1 301
1 302
1 303
1 304
1 305
1 306
1 307
1 308
1 309
1 310
1 311
1 312
1 313
1 314
1 315
1 316
1 317
1 318
1 319
1 320
1 321
1 322
1 323
1 324
1 325
1 326
1 327
1 328
1 329
1 330
1 331
1 332
1 333
1 334
1 335
1 336
1 337
1 338
1 339
1 340
1 341
1 342
1 343
1 344
1 345
1 346
1 347
1 348
1 349
1 350
1 351
1 352
1 353
1 354
1 355
1 356
1 357
1 358
1 359
1 360
1 361
1 362
1 363
1 364
1 365
1 366
1 367
1 368
1 369
1 370
1 371
1 372
1 373
1 374
1 375
1 376
1 377
1 378
1 379
1 380
1 381
1 382
1 383
1 384
1 385
1 386
1 387
1 388
1 389
1 390
1 391
1 392
1 393
1 394
1 395
1 396
1 397
1 398
1 399
1 400
1 401
1 402
1 403
1 404
1 405
1 406
1 407
1 408
1 409
1 410
1 411
1 412
1 413
1 414
1 415
1 416
1 417
1 418
1 419
1 420
1 421
1 422
1 423
1 424
1 425
1 426
1 427
1 428
1 429
1 430
1 431
1 432
1 433
1 434
1 435
1 436
1 437
1 438
1 439
1 440
1 441
1 442
1 443
1 444
1 445
1 446
1 447
1 448
1 449
1 450
1 451
1 452
1 453
1 454
1 455
1 456
1 457
1 458
1 459
1 460
1 461
1 462
1 463
1 464
1 465
1 466
1 467
1 468
1 469
1 470
1 471
1 472
1 473
1 474
1 475
1 476
1 477
1 478
1 479
1 480
1 481
1 482
1 483
1 484
1 485
1 486
1 487
1 488
1 489
1 490
1 491
1 492
1 493
1 494
1 495
1 496
1 497
1 498
1 499
POINT_DATA 500
SCALARS id int 1
LOOKUP_TABLE default
0
1
2
3
4
5
6
7
8
9
10
11
12
13
14
15
16
17
18
19
20
21
22
23
24
25
26
27
28
29
30
31
32
33
34
35
36
37
38
39
40
41
42
43
44
45
46
47
48
49
50
51
52
53
54
55
56
57
58
59
60
61
62
63
64
65
66
67
68
69
70
71
72
73
74
75
76
77
78
79
80
81
82
83
84
85
86
87
88
89
90
91
92
93
94
95
96
97
98
99
100
101
102
103
104
105
106
107
108
109
110
111
112
113
114
115
116
117
118
119
120
121
122
123
124
125
126
127
128
129
130
131
132
133
134
135
136
137
138
139
140
141
142
143
144
145
146
147
148
149
150
151
152
153
154
155
156
157
158
159
160
161
162
163
164
165
166
167
168
169
170
171
172
173
174
175
176
177
178
179
180
181
182
183
184
185
186
187
188
189
190
191
192
193
194
195
196
197
198
199
200
201
202
203
204
205
206
207
208
209
210
211
212
213
214
215
216
217
218
219
220
221
222
223
224
225
226
227
228
229
230
231
232
233
234
235
236
237
238
239
240
241
242
243
244
245
246
247
248
249
250
251
252
253
254
255
256
257
258
259
260
261
262
263
264
265
266
267
268
269
270
271
272
273
274
275
276
277
278
279
280
281
282
283
284
285
286
287
288
289
290
291
292
293
294
295
296
297
298
299
300
301
302
303
304
305
306
307
308
309
310
311
312
313
314
315
316
317
318
319
320
321
322
323
324
325
326
327
328
329
330
331
332
333
334
335
336
337
338
339
340
341
342
343
344
345
346
347
348
349
350
351
352
353
354
355
356
357
358
359
360
361
362
363
364
365
366
367
368
369
370
371
372
373
374
375
376
377
378
379
380
381
382
383
384
385
386
387
388
389
390
391
392
393
394
395
396
397
398
399
400
401
402
403
404
405
406
407
408
409
410
411
412
413
414
415
416
417
418
419
420
421
422
423
424
425
426
427
428
429
430
431
432
433
434
435
436
437
438
439
440
441
442
443
444
445
446
447
448
449
450
451
452
453
454
455
456
457
458
459
460
461
462
463
464
465
466
467
468
469
470
471
472
473
474
475
476
477
478
479
480
481
482
483
484
485
486
487
488
489
490
491
492
493
494
495
496
497
498
499
SCALARS type int 1
LOOKUP_TABLE default
0
0
0
0
0
0
0
0
0
0
0
0
0
0
0
0
0
0
0
0
0
0
0
0
0
0
0
0
0
0
0
0
0
0
0
0
0
0
0
0
0
0
0
0
0
0
0
0
0
0
0
0
0
0
0
0
0
0
0
0
0
0
0
0
0
0
0
0
0
0
0
0
0
0
0
0
0
0
0
0
0
0
0
0
0
0
0
0
0
0
0
0
0
0
0
0
0
0
0
0
0
0
0
0
0
0
0
0
0
0
0
0
0
0
0
0
0
0
0
0
0
0
0
0
0
0
0
0
0
0
0
0
0
0
0
0
0
0
0
0
0
0
0
0
0
0
0
0
0
0
0
0
0
0
0
0
0
0
0
0
0
0
0
0
0
0
0
0
0
0
0
0
0
0
0
0
0
0
0
0
0
0
0
0
0
0
0
0
0
0
0
0
0
0
0
0
0
0
0
0
0
0
0
0
0
0
0
0
0
0
0
0
0
0
0
0
0
0
0
0
0
0
0
0
0
0
0
0
0
0
0
0
0
0
0
0
0
0
0
0
0
0
0
0
0
0
0
0
0
0
0
0
0
0
0
0
0
0
0
0
0
0
0
0
0
0
0
0
0
0
0
0
0
0
0
0
0
0
0
0
0
0
0
0
0
0
0
0
0
0
0
0
0
0
0
0
0
0
0
0
0
0
0
0
0
0
0
0
0
0
0
0
0
0
0
0
0
0
0
0
0
0
0
0
0
0
0
0
0
0
0
0
0
0
0
0
0
0
0
0
0
0
0
0
0
0
0
0
0
0
0
0
0
0
0
0
0
0
0
0
0
0
0
0
0
0
0
0
0
0
0
0
0
0
0
0
0
0
0
0
0
0
0
0
0
0
0
0
0
0
0
0
0
0
0
0
0
0
0
0
0
0
0
0
0
0
0
0
0
0
0
0
0
0
0
0
0
0
0
0
0
0
0
0
0
0
0
0
0
0
0
0
0
0
0
0
0
0
0
0
0
0
0
0
0
0
0
0
0
0
0
0
0
0
0
0
0
0
0
0
0
0
0
0
0
0
0
0
0
0
0
0
0
0
0
0
0
0
0
0
0
0
0
0
0
0
0
0
0
0
0
0
0
0
0
0
0
0
0
0
SCALARS damp_viscous double 1
LOOKUP_TABLE default
0
0
0
0
0
0
0
0
0
0
0
0
0
0
0
0
0
0
0
0
0
0
0
0
0
0
0
0
0
0
0
0
0
0
0
0
0
0
0
0
0
0
0
0
0
0
0
0
0
0
0
0
0
0
0
0
0
0
0
0
0
0
0
0
0
0
0
0
0
0
0
0
0
0
0
0
0
0
0
0
0
0
0
0
0
0
0
0
0
0
0
0
0
0
0
0
0
0
0
0
0
0
0
0
0
0
0
0
0
0
0
0
0
0
0
0
0
0
0
0
0
0
0
0
0
0
0
0
0
0
0
0
0
0
0
0
0
0
0
0
0
0
0
0
0
0
0
0
0
0
0
0
0
0
0
0
0
0
0
0
0
0
0
0
0
0
0
0
0
0
0
0
0
0
0
0
0
0
0
0
0
0
0
0
0
0
0
0
0
0
0
0
0
0
0
0
0
0
0
0
0
0
0
0
0
0
0
0
0
0
0
0
0
0
0
0
0
0
0
0
0
0
0
0
0
0
0
0
0
0
0
0
0
0
0
0
0
0
0
0
0
0
0
0
0
0
0
0
0
0
0
0
0
0
0
0
0
0
0
0
0
0
0
0
0
0
0
0
0
0
0
0
0
0
0
0
0
0
0
0
0
0
0
0
0
0
0
0
0
0
0
0
0
0
0
0
0
0
0
0
0
0
0
0
0
0
0
0
0
0
0
0
0
0
0
0
0
0
0
0
0
0
0
0
0
0
0
0
0
0
0
0
0
0
0
0
0
0
0
0
0
0
0
0
0
0
0
0
0
0
0
0
0
0
0
0
0
0
0
0
0
0
0
0
0
0
0
0
0
0
0
0
0
0
0
0
0
0
0
0
0
0
0
0
0
0
0
0
0
0
0
0
0
0
0
0
0
0
0
0
0
0
0
0
0
0
0
0
0
0
0
0
0
0
0
0
0
0
0
0
0
0
0
0
0
0
0
0
0
0
0
0
0
0
0
0
0
0
0
0
0
0
0
0
0
0
0
0
0
0
0
0
0
0
0
0
0
0
0
0
0
0
0
0
0
0
0
0
0
0
0
0
0
0
0
0
0
0
0
0
0
0
0
0
0
0
0
0
0
0
0
0
0
0
0
0
0
0
0
0
SCALARS damp_numerical double 1
LOOKUP_TABLE default
0.5
0.5
0.5
0.5
0.5
0.5
0.5
0.5
0.5
0.5
0.5
0.5
0.5
0.5
0.5
0.5
0.5
0.5
0.5
0.5
0.5
0.5
0.5
0.5
0.5
0.5
0.5
0.5
0.5
0.5
0.5
0.5
0.5
0.5
0.5
0.5
0.5
0.5
0.5
0.5
0.5
0.5
0.5
0.5
0.5
0.5
0.5
0.5
0.5
0.5
0.5
0.5
0.5
0.5
0.5
0.5
0.5
0.5
0.5
0.5
0.5
0.5
0.5
0.5
0.5
0.5
0.5
0.5
0.5
0.5
0.5
0.5
0.5
0.5
0.5
0.5
0.5
0.5
0.5
0.5
0.5
0.5
0.5
0.5
0.5
0.5
0.5
0.5
0.5
0.5
0.5
0.5
0.5
0.5
0.5
0.5
0.5
0.5
0.5
0.5
0.5
0.5
0.5
0.5
0.5
0.5
0.5
0.5
0.5
0.5
0.5
0.5
0.5
0.5
0.5
0.5
0.5
0.5
0.5
0.5
0.5
0.5
0.5
0.5
0.5
0.5
0.5
0.5
0.5
0.5
0.5
0.5
0.5
0.5
0.5
0.5
0.5
0.5
0.5
0.5
0.5
0.5
0.5
0.5
0.5
0.5
0.5
0.5
0.5
0.5
0.5
0.5
0.5
0.5
0.5
0.5
0.5
0.5
0.5
0.5
0.5
0.5
0.5
0.5
0.5
0.5
0.5
0.5
0.5
0.5
0.5
0.5
0.5
0.5
0.5
0.5
0.5
0.5
0.5
0.5
0.5
0.5
0.5
0.5
0.5
0.5
0.5
0.5
0.5
0.5
0.5
0.5
0.5
0.5
0.5
0.5
0.5
0.5
0.5
0.5
0.5
0.5
0.5
0.5
0.5
0.5
0.5
0.5
0.5
0.5
0.5
0.5
0.5
0.5
0.5
0.5
0.5
0.5
0.5
0.5
0.5
0.5
0.5
0.5
0.5
0.5
0.5
0.5
0.5
0.5
0.5
0.5
0.5
0.5
0.5
0.5
0.5
0.5
0.5
0.5
0.5
0.5
0.5
0.5
0.5
0.5
0.5
0.5
0.5
0.5
0.5
0.5
0.5
0.5
0.5
0.5
0.5
0.5
0.5
0.5
0.5
0.5
0.5
0.5
0.5
0.5
0.5
0.5
0.5
0.5
0.5
0.5
0.5
0.5
0.5
0.5
0.5
0.5
0.5
0.5
0.5
0.5
0.5
0.5
0.5
0.5
0.5
0.5
0.5
0.5
0.5
0.5
0.5
0.5
0.5
0.5
0.5
0.5
0.5
0.5
0.5
0.5
0.5
0.5
0.5
0.5
0.5
0.5
0.5
0.5
0.5
0.5
0.5
0.5
0.5
0.5
0.5
0.5
0.5
0.5
0.5
0.5
0.5
0.5
0.5
0.5
0.5
0.5
0.5
0.5
0.5
0.5
0.5
0.5
0.5
0.5
0.5
0.5
0.5
0.5
0.5
0.5
0.5
0.5
0.5
0.5
0.5
0.5
0.5
0.5
0.5
0.5
0.5
0.5
0.5
0.5
0.5
0.5
0.5
0.5
0.5
0.5
0.5
0.5
0.5
0.5
0.5
0.5
0.5
0.5
0.5
0.5
0.5
0.5
0.5
0.5
0.5
0.5
0.5
0.5
0.5
0.5
0.5
0.5
0.5
0.5
0.5
0.5
0.5
0.5
0.5
0.5
0.5
0.5
0.5
0.5
0.5
0.5
0.5
0.5
0.5
0.5
0.5
0.5
0.5
0.5
0.5
0.5
0.5
0.5
0.5
0.5
0.5
0.5
0.5
0.5
0.5
0.5
0.5
0.5
0.5
0.5
0.5
0.5
0.5
0.5
0.5
0.5
0.5
0.5
0.5
0.5
0.5
0.5
0.5
0.5
0.5
0.5
0.5
0.5
0.5
0.5
0.5
0.5
0.5
0.5
0.5
0.5
0.5
0.5
0.5
0.5
0.5
0.5
0.5
0.5
0.5
0.5
0.5
0.5
0.5
0.5
0.5
0.5
0.5
0.5
0.5
0.5
0.5
0.5
0.5
0.5
0.5
0.5
0.5
0.5
0.5
0.5
0.5
0.5
0.5
0.5
0.5
0.5
0.5
0.5
0.5
0.5
0.5
0.5
0.5
0.5
0.5
0.5
0.5
0.5
0.5
0.5
0.5
0.5
SCALARS quat double 4
LOOKUP_TABLE default
0.773594 -0.000578149 -0.068799 0.629936 
0.792185 0.100793 0.601899 0.0011148 
0.989883 0.0767567 -0.0454253 -0.110345 
-0.367235 -0.502664 -0.531065 -0.574837 
0.126701 0.533699 -0.539724 0.6386 
0.803692 -0.313099 -0.164884 0.478394 
0.342966 -0.77476 -0.13898 0.512646 
0.887697 0.0364146 0.380718 0.256365 
-0.0988988 0.442332 0.891036 -0.0248194 
0.0435735 0.0953921 0.036278 0.993824 
0.855056 0.163792 -0.0581495 0.488538 
0.0607121 -0.931225 -0.0717196 -0.352124 
0.183155 0.433818 -0.0709004 0.879335 
0.607939 0.693835 0.371829 -0.103664 
0.321172 0.829479 -0.207619 0.407073 
0.991254 0.0945502 -0.0685521 0.0614591 
0.715968 0.0535871 -0.0092884 0.696011 
0.993654 0.029838 -0.0383594 0.101438 
0.977775 0.125389 -0.109649 0.127318 
-0.722663 0.22831 0.647339 0.0811538 
0.824816 0.197838 0.482851 -0.217698 
-0.259678 0.891333 -0.221495 0.298386 
0.80855 -0.251488 -0.438016 -0.301897 
0.497587 0.755274 -0.414331 -0.101477 
0.984744 0.0860076 -0.0940807 0.118452 
0.816195 0.158182 -0.211674 0.513807 
-0.72641 0.558079 -0.380541 0.126746 
0.969061 0.118087 -0.190493 -0.103388 
0.859952 -0.218772 -0.422459 0.184799 
-0.161007 0.38087 -0.330164 0.848532 
0.652254 0.476588 0.480451 0.341462 
-0.143853 -0.599746 -0.541628 -0.571183 
0.264796 0.00358726 -0.90734 0.326502 
0.0805355 0.116374 0.0848358 0.986293 
0.533519 0.758044 0.145056 -0.345955 
0.52641 -0.422201 -0.0184845 0.737765 
-0.185512 0.531859 -0.427158 0.707282 
0.278726 0.23125 0.2346 0.902108 
0.744228 -0.62125 -0.217269 0.113877 
0.582546 0.605631 -0.141334 -0.523332 
0.924286 0.157476 -0.190032 0.291178 
0.693341 0.187925 -0.0622908 0.69288 
0.986408 -0.12584 -0.102077 -0.0272561 
-0.000719761 0.838414 0.51646 -0.174156 
0.807218 -0.519882 -0.203339 -0.19177 
0.264112 0.274006 -0.651337 0.656449 
0.54642 -0.158959 0.112804 -0.814514 
-0.954856 0.205696 -0.166222 0.135312 
0.360936 0.693848 -0.544124 0.303694 
-0.865393 0.484594 0.0679515 -0.107922 
0.906336 0.350504 -0.188356 -0.142213 
-0.237197 0.454377 0.826161 -0.233957 
0.720145 0.0665727 0.616031 -0.312195 
-0.616333 0.442548 -0.651113 0.0183536 
-0.466594 0.5571 0.395208 -0.561909 
-0.346974 0.585249 0.719184 -0.14095 
-0.164943 0.207256 0.912391 -0.312061 
0.0377733 -0.0498326 -0.890998 -0.44968 
-0.1802 0.114953 0.71902 -0.661304 
0.334059 -0.923628 -0.151954 0.110571 
-0.40603 0.306296 0.695478 -0.507575 
-0.884536 -0.108553 0.0780754 0.446897 
-0.297911 -0.707978 0.136368 0.625635 
0.157678 0.163275 0.962119 0.151016 
-0.0760842 0.0393113 0.993214 -0.0786879 
0.897975 0.290834 -0.319492 -0.0835529 
-0.00650948 -0.963558 -0.175763 0.201547 
0.957867 -0.172793 -0.154013 0.170041 
0.890895 0.057413 0.399734 -0.2079 
-0.962383 0.0758954 0.00690567 -0.26079 
0.685709 -0.637762 -0.204838 0.284789 
-0.632325 -0.649458 -0.393803 -0.152607 
0.244401 0.376171 -0.00761798 -0.893703 
-0.643269 0.670598 -0.330124 -0.165897 
0.954256 -0.205722 0.00804914 -0.216817 
0.953249 0.0828407 -0.0758074 -0.280549 
0.636417 -0.0649672 -0.661129 0.391995 
0.886711 -0.333635 0.319076 -0.0249353 
-0.694458 -0.218631 -0.00767594 0.685471 
-0.589324 0.34896 -0.0610523 -0.726083 
0.980231 0.012898 0.195305 0.028911 
-0.244058 0.907697 0.00736411 0.341274 
0.739911 -0.0299546 0.670825 -0.0403545 
-0.235559 0.844207 -0.278716 0.392612 
0.937816 -0.305389 0.153849 -0.0597502 
0.783963 -0.550014 -0.268552 0.103763 
-0.0720401 -0.460878 -0.09382 -0.879545 
0.734927 0.380813 0.0483505 -0.55904 
0.331762 0.92781 0.0602288 -0.159609 
-0.266415 0.578643 -0.694515 0.334431 
0.813894 -0.349811 0.417186 -0.202889 
-0.83199 0.342105 -0.411013 0.147733 
0.868481 -0.0348871 -0.436069 0.233168 
0.752292 -0.508178 0.411167 0.0821835 
0.790991 0.0498421 0.332129 -0.511409 
0.281354 -0.578533 -0.528465 -0.553953 
0.202601 -0.773386 0.556555 0.225995 
0.352385 -0.0260009 -0.899069 0.258504 
-0.555492 0.605263 0.299741 -0.485016 
0.979119 -0.15768 -0.0335398 -0.123849 
0.829983 -0.15052 -0.0865914 -0.53007 
0.444638 0.441306 0.752962 0.201481 
-0.199618 0.429961 -0.880452 0.00949548 
-0.527971 -0.497702 -0.678777 0.113143 
-0.203341 -0.0827858 -0.538667 0.81341 
0.863802 0.253295 0.15265 0.407903 
-0.871553 0.364527 0.261597 -0.197693 
0.531393 0.672554 0.422066 0.295216 
0.885036 0.28588 -0.136394 -0.341146 
-0.0772912 0.250032 -0.948915 0.176266 
-0.0667754 -0.545152 -0.648349 0.527251 
-0.506825 -0.176386 0.778571 0.325336 
-0.083946 -0.215299 0.109649 -0.966735 
0.853625 -0.240687 0.39301 0.242771 
-0.28986 0.0311244 0.0225614 0.956297 
0.902831 -0.359201 0.210175 -0.108156 
0.213363 -0.732817 0.600389 0.238723 
0.378768 -0.0885407 -0.458834 0.798854 
0.850705 0.00266915 0.186315 0.491509 
0.183001 0.129386 -0.809582 0.542537 
0.0405331 0.372955 0.301559 -0.876541 
-0.154047 -0.294786 -0.791978 0.511999 
0.321941 -0.463351 -0.420777 -0.710357 
-0.897877 -0.255299 -0.254024 0.253202 
0.79558 -0.560623 0.0145056 0.229224 
0.771799 0.33094 -0.512144 -0.180312 
0.453767 0.563955 0.554943 -0.409985 
0.529173 0.269924 0.198465 -0.779569 
-0.411639 0.122142 0.898063 -0.0954872 
0.465365 -0.398339 0.693614 0.379027 
-0.03732 0.186473 0.944754 -0.266975 
-0.962691 0.0360212 -0.131165 -0.233931 
-0.162545 -0.630972 -0.728206 -0.21253 
0.244252 0.184783 -0.951801 -0.016455 
0.13307 -0.915091 0.238447 0.296721 
0.0776286 -0.154924 0.763145 0.62256 
0.162552 0.688765 0.329228 0.625131 
-0.76345 -0.609913 0.0976618 -0.188715 
0.326532 0.920972 -0.15929 -0.140766 
-0.0933959 0.813321 -0.574237 0.00622489 
-0.428881 0.138872 -0.877254 0.164928 
0.321596 -0.418125 0.17976 0.830321 
-0.0800953 0.520337 -0.243223 0.814664 
0.943187 -0.264972 -0.180926 0.0863333 
0.00585561 -0.51692 -0.788938 -0.33217 
-0.361519 -0.859585 0.211159 0.292967 
0.541227 -0.630231 0.387518 -0.399641 