# vtk DataFile Version 2.0
Generated by NetDEM
ASCII 
DATASET POLYDATA
POINTS 500 double
-0.418635 -0.408001 -0.463856 
-0.448969 -0.195167 -0.45002 
-0.410993 -0.00673549 -0.464409 
-0.450024 0.110437 -0.450021 
-0.438227 0.345906 -0.450043 
-0.271026 -0.429684 -0.459145 
-0.306897 -0.213672 -0.450062 
-0.194543 -0.00964195 -0.450058 
-0.172912 0.1729 -0.463908 
-0.253771 0.366102 -0.463141 
-0.0560964 -0.396642 -0.460799 
-0.144547 -0.134341 -0.450008 
-0.055383 -0.0873229 -0.450027 
0.0367237 0.179254 -0.452423 
-0.0300697 0.319511 -0.441536 
0.193017 -0.401631 -0.462882 
0.168375 -0.210381 -0.463009 
0.173212 -0.00690507 -0.462512 
0.16084 0.208759 -0.465053 
0.299396 0.402823 -0.417131 
0.450042 -0.408167 -0.450074 
0.430946 -0.303182 -0.450017 
0.336613 -0.0154135 -0.450007 
0.38036 0.0897283 -0.450019 
0.371641 0.439183 -0.465112 
-0.429624 -0.409458 -0.393497 
-0.45 -0.269819 -0.383501 
-0.409021 -0.0182824 -0.385694 
-0.44944 0.174045 -0.372875 
-0.449408 0.449818 -0.450037 
-0.33481 -0.407476 -0.405354 
-0.233815 -0.157637 -0.410852 
-0.15463 -0.0988186 -0.203426 
-0.304654 0.164377 -0.465044 
-0.147053 0.403614 -0.448098 
-0.0860114 -0.389531 -0.395994 
0.313916 -0.238668 -0.11408 
-0.0322783 -0.0135894 -0.30328 
0.0269035 0.259597 -0.45003 
0.119946 0.301493 -0.426787 
0.203529 -0.413697 -0.39021 
0.165411 -0.206317 -0.389587 
0.175009 0.0145752 -0.385488 
0.196803 0.112751 -0.455796 
0.2846 0.372352 -0.323103 
0.390828 -0.450035 -0.381259 
0.436435 -0.356487 -0.365591 
0.27506 -0.207445 -0.450007 
0.450029 0.140164 -0.399033 
0.424845 0.340246 -0.456374 
-0.434881 -0.44074 -0.326113 
-0.320757 -0.205884 -0.351434 
-0.314493 -0.0229331 -0.362859 
-0.290683 0.2678 -0.450016 
-0.450013 0.27364 -0.381988 
-0.181262 -0.37486 -0.451371 
0.195247 -0.330347 -0.253713 
-0.236797 -0.060445 -0.161294 
-0.176871 0.0788586 -0.450348 
-0.348142 0.33182 -0.334711 
0.0431005 -0.439327 -0.449598 
0.207869 -0.283284 -0.123715 
0.208012 0.065513 -0.195734 
-0.0377884 0.222363 -0.387542 
0.25519 0.331308 -0.463903 
0.201556 -0.435474 -0.319153 
0.0513739 -0.0941199 -0.450085 
0.162107 0.0577064 -0.329592 
0.273555 0.065793 -0.44352 
0.112499 0.138699 -0.397861 
0.303515 -0.448524 -0.450007 
0.378657 -0.217766 -0.450079 
0.380958 -0.108504 -0.450054 
0.450016 0.23399 -0.36453 
0.437706 0.255884 -0.459892 
-0.434049 -0.452846 -0.243831 
-0.176403 -0.169395 -0.329804 
-0.240928 -0.00452914 -0.352186 
-0.273637 0.0926006 -0.404152 
-0.359493 0.140924 -0.340228 
-0.158782 -0.448147 -0.391852 
-0.128995 -0.055683 -0.390249 
-0.241433 0.0481956 -0.21979 
-0.0552285 0.126884 -0.443076 
-0.355088 0.378333 -0.406773 
0.0942398 -0.452584 -0.355674 
0.449993 -0.332317 -0.0682077 
-0.186387 -0.239943 -0.450007 
0.0196267 0.0475014 -0.450095 
0.0669035 0.397356 -0.409047 
0.262745 -0.446974 -0.241344 
0.156475 -0.319052 -0.400871 
0.124994 0.0640748 -0.266449 
0.262447 0.175546 -0.444082 
0.145293 0.450006 -0.450015 
0.352506 -0.314439 -0.331144 
0.449936 -0.106889 -0.377708 
0.386468 0.165393 -0.32606 
0.33072 0.307992 -0.412619 
0.433104 0.36902 -0.376212 
-0.389205 -0.439687 -0.168793 
-0.3689 -0.362866 -0.116189 
-0.294451 -0.040459 -0.271337 
-0.37046 0.0675947 -0.407286 
-0.449969 0.428173 -0.352435 
-0.264594 -0.438704 -0.363329 
-0.077342 -0.134445 -0.354744 
-0.246002 0.0366381 -0.120596 
-0.00740414 -0.0225754 -0.393794 
-0.423521 0.242788 -0.463855 
0.0825506 -0.342222 -0.440691 
0.355317 -0.211276 -0.0272874 
0.0239526 -0.118934 -0.34788 
0.0321688 0.0439535 -0.354899 
-0.00258637 0.437345 -0.464599 
0.303073 -0.387831 -0.209269 
0.260275 -0.317047 -0.400714 
0.0421719 0.0707941 -0.255177 
0.240163 0.235384 -0.379078 
0.349308 0.450008 -0.265012 
0.339673 -0.410196 -0.305167 
0.450001 -0.209059 -0.38056 
0.45 -0.0324381 -0.450007 
0.334104 0.208959 -0.399239 
0.397362 0.450511 -0.370735 
-0.461869 -0.452441 -0.122718 
-0.319662 -0.139841 -0.27643 
-0.450991 -0.031029 -0.316668 
-0.247017 0.18776 -0.387268 
-0.310547 0.44585 -0.351464 
-0.160803 -0.376385 -0.334396 
-0.0836868 -0.213684 -0.450012 
-0.190868 -0.158027 -0.131439 
-0.135657 0.146777 -0.396429 
-0.230297 0.328119 -0.394818 
-0.0926581 -0.307495 -0.451173 
0.291895 -0.320583 -0.060993 
0.449977 0.0523813 -0.158125 
0.0493355 0.119877 -0.327245 
-0.112561 0.313045 -0.401005 
0.174293 -0.428018 -0.222367 
0.238066 -0.142212 -0.389359 
0.11065 -0.0229743 -0.207658 
0.197282 0.307361 -0.337321 
0.203289 0.384567 -0.395163 
0.449967 -0.444826 -0.300777 
0.336117 -0.176636 -0.369538 
0.250163 -0.0659062 -0.450007 
0.449879 0.0536184 -0.348899 
0.43949 0.401281 -0.296388 
-0.443067 -0.45683 -0.00344333 
-0.229361 -0.170974 -0.244982 
-0.422898 -0.114536 -0.404547 
-0.207471 0.273124 -0.329021 
-0.333917 0.233961 -0.366449 
-0.139644 -0.296665 -0.319556 
0.129954 -0.450004 -0.0867567 
-0.302919 0.359006 -0.149843 
-0.106875 0.276095 -0.320957 
-0.221431 0.448786 -0.414465 
-0.00194402 -0.339344 -0.34928 
0.122447 -0.233555 -0.138845 
-0.166354 -0.0714976 -0.298875 
0.022513 0.195829 -0.28361 
0.00785177 0.294194 -0.34085 
0.0798748 -0.415697 -0.271379 
0.134908 -0.0967528 -0.397488 
0.257198 -0.118062 -0.257579 
0.229118 0.1837 -0.320191 
0.142088 0.449529 -0.35007 
0.390697 -0.226099 -0.301844 
0.346403 -0.0752228 -0.362327 
0.322995 0.0628415 -0.372659 
0.399868 0.3003 -0.308946 
0.445758 0.375418 -0.207222 
-0.32904 -0.442194 -0.0455555 
-0.447873 -0.0977083 -0.257893 
-0.353788 0.0114365 -0.233671 
-0.448634 0.0642901 -0.34282 
-0.419597 0.260032 -0.287739 
-0.269829 -0.305304 -0.447108 
-0.177247 -0.277091 -0.223747 
-0.144502 0.396573 -0.0612927 
-0.128218 0.188758 -0.332761 
-0.143024 0.441529 -0.339914 
0.00808263 -0.435388 -0.355189 
0.0143322 -0.100823 -0.250026 
0.0157835 -0.224056 -0.450007 
-0.0335518 0.26976 -0.239321 
-0.00611867 0.412915 -0.369101 
0.0779226 -0.426637 -0.168671 
0.0953663 -0.0422439 -0.327669 
0.294403 -0.16124 -0.178348 
0.20366 0.139059 -0.258985 
0.249469 0.450012 -0.270801 
0.450042 -0.309876 -0.278164 
0.449998 -0.146799 -0.28604 
0.364909 0.0416527 -0.284402 
0.316642 0.244951 -0.305945 
0.381495 0.426844 -0.188493 
-0.240389 -0.443966 -0.107104 
-0.442516 0.229769 -0.195242 
-0.29683 0.197952 -0.17794 
-0.192712 0.0772014 -0.340112 
-0.382381 0.45 -0.282064 
-0.22223 -0.350269 -0.23571 
-0.0443335 -0.264259 -0.292468 
0.0144267 -0.244514 -0.214005 
-0.161018 0.115804 -0.249051 
-0.168139 0.352807 -0.325045 
-0.0434725 -0.389368 -0.287865 
-0.156259 -0.126898 0.309123 
-0.0276704 0.204453 -0.159083 
-0.0590114 0.120806 -0.291469 
0.109889 0.363208 -0.317857 
0.271544 -0.431483 -0.127294 
0.216862 -0.197502 -0.30775 
0.295911 -0.10625 -0.108161 
0.151195 0.22975 -0.281387 
0.215264 0.337996 -0.243636 
0.415602 -0.382471 -0.218698 
0.446351 -0.229381 -0.218898 
0.437572 -0.0366318 -0.307652 
0.305027 0.121732 -0.286397 
0.40653 0.406371 -0.115927 
-0.244709 -0.332362 -0.143496 
-0.415595 -0.335184 -0.316098 
-0.428188 0.323552 -0.107444 
-0.339119 0.320622 -0.0415871 
-0.447013 0.431505 0.0030712 
-0.139109 -0.415782 -0.244595 
-0.0553639 0.134623 -0.0525144 
-0.259768 -0.177464 -0.0110583 
-0.18644 0.17699 -0.177968 
-0.159772 0.336965 -0.216615 
-0.057284 -0.384907 -0.201107 
-0.137124 -0.14148 0.0109391 
-0.114281 -0.0287861 -0.144553 
0.000882842 0.112659 -0.187281 
0.024843 0.445922 -0.275311 
0.298277 -0.322281 -0.159575 
0.251781 -0.297466 -0.311969 
0.354918 -0.0506884 -0.0582155 
0.157042 0.270073 -0.206828 
0.206735 0.40815 -0.120299 
0.365574 -0.450039 -0.164564 
0.44881 -0.198013 -0.0601696 
0.33575 0.132151 0.0119539 
0.450014 0.15214 -0.16639 
0.428271 0.390984 -0.0344592 
-0.298496 -0.317833 -0.347835 
-0.116905 -0.204912 -0.257667 
-0.32333 -0.0255365 -0.138102 
-0.220443 0.211415 -0.251445 
-0.425162 0.445001 -0.191841 
-0.247204 -0.429222 -0.215183 
0.0999301 -0.287535 -0.303876 
-0.309882 0.257934 -0.113851 
-0.246227 0.302111 -0.186639 
-0.153948 0.440426 -0.22668 
0.0182768 -0.380095 -0.153461 
0.450007 -0.392086 0.0272707 
0.0801285 0.437758 -0.172989 
-0.0715644 0.406426 -0.316179 
-0.0352533 0.447469 -0.211637 
0.354938 -0.397382 -0.0760806 
0.374561 -0.0985781 -0.157182 
0.197172 -0.0317212 -0.276463 
0.224171 0.198377 -0.186899 
0.0867435 0.237214 -0.366255 
0.35787 -0.293092 -0.233596 
0.356706 -0.147643 -0.250062 
0.450015 0.0837513 -0.253072 
0.448325 0.2183 -0.26578 
0.409942 0.449785 0.0140643 
-0.334723 -0.394213 0.0309392 
-0.139881 -0.344121 -0.116448 
-0.432482 -0.112319 -0.173773 
-0.450025 0.09487 -0.163027 
-0.347931 0.196893 -0.258201 
-0.145283 -0.441859 -0.150298 
-0.0596167 -0.296539 -0.157308 
-0.233267 0.4489 -0.288087 
-0.281581 0.313878 -0.277532 
-0.204454 0.434639 -0.136359 
0.0397362 -0.406636 -0.0669748 
-0.116595 0.450002 0.149947 
0.02779 0.183702 -0.0785095 
-0.0689809 0.309224 -0.179283 
0.00696982 0.371311 -0.163833 
0.266767 -0.424295 -0.0165688 
0.0297332 -0.0837127 0.0226337 
0.146584 -0.0350992 -0.121954 
0.286605 0.176152 -0.127957 
0.0760494 0.249317 -0.138645 
0.407298 -0.282984 -0.144009 
0.45002 -0.156161 -0.150941 
0.333792 -0.0515786 -0.26599 
0.450003 0.274443 -0.183036 
0.302172 0.412906 -0.0658734 
-0.286324 -0.352899 -0.0536132 
-0.414685 0.00184751 -0.172733 
-0.392234 -0.298396 -0.0519506 
-0.428216 0.135601 -0.267777 
-0.449953 0.450004 -0.0951302 
-0.156925 -0.427915 -0.0500887 
-0.143026 -0.321488 -0.0188621 
-0.283984 0.0884839 -0.300804 
-0.134034 0.276206 -0.102834 
-0.248169 0.379204 -0.0624304 
-0.0215312 -0.425793 -0.00547613 
-0.407732 -0.174885 -0.312982 
0.00481395 -0.00382465 -0.210934 
-0.0424897 0.293336 -0.0712235 
-0.0104431 0.442218 -0.11244 
0.15335 -0.3944 -0.00343743 
0.453884 0.00367128 0.0238115 
0.0762331 -0.0295351 -0.0514238 
0.304351 0.335816 -0.188535 
0.279208 0.449521 -0.175353 
0.373653 -0.450008 -0.00142593 
0.442022 -0.03421 0.110069 
0.248214 -0.0636214 -0.344969 
0.350458 0.2516 -0.179031 
0.440862 0.450711 0.103362 
-0.332143 -0.237365 0.151146 
-0.386071 -0.269277 -0.146935 
-0.423248 0.102538 -0.0808659 
-0.386402 0.311848 -0.184507 
-0.449483 0.373819 -0.268511 
-0.169941 -0.433356 0.0683994 
-0.055125 -0.152008 -0.199478 
-0.222299 0.288678 -0.0615481 
-0.101235 0.379353 -0.148014 
-0.0771523 0.435917 -0.0268731 
-0.0892087 -0.444805 0.0445259 
0.0778732 -0.167267 -0.210693 
-0.0653882 0.0656695 -0.124254 
0.0298844 0.249831 -0.0143947 
0.0082433 0.423735 -0.0353741 
0.135206 -0.333562 -0.069381 
0.176119 -0.18839 -0.22188 
0.130856 0.151465 -0.163152 
0.312298 0.22155 -0.0428857 
0.173946 0.450012 -0.205295 
0.450012 -0.4156 -0.123543 
0.326388 -0.26999 0.0482922 
0.41402 -0.0247684 -0.2112 
0.371944 0.166599 -0.227151 
0.426251 0.275927 0.267664 
-0.421856 -0.385304 0.0799382 
-0.450018 -0.215559 -0.232027 
-0.366114 0.217186 -0.0624237 
-0.449408 0.0644964 0.0118526 
-0.450002 0.196915 -0.101101 
-0.223838 -0.380552 0.016742 
-0.276397 -0.11759 -0.089391 
-0.320465 -0.116418 -0.179121 
-0.188087 0.360527 0.0248377 
-0.126092 0.39878 0.053463 
0.0467205 -0.182279 -0.104791 
-0.149523 -0.245223 -0.105232 
0.224135 0.13914 -0.0470339 
0.104714 0.309112 0.00147124 
-0.0218275 0.438861 0.0555074 
0.0698513 -0.212558 0.0172325 
0.45537 -0.0808203 -0.0921676 
0.279693 0.0603023 0.0006837 
0.194857 0.223294 -0.0898648 
0.0930671 0.335748 0.125398 
0.398144 -0.074902 0.0276931 
0.44818 -0.26981 0.00982278 
0.368565 0.0121698 -0.11615 
0.428355 0.113707 -0.0766704 
0.328432 0.32042 -0.0922605 
-0.42695 -0.17646 -0.11963 
-0.449995 -0.250721 0.00274418 
-0.39319 -0.00489598 -0.0781429 
-0.445305 0.287678 0.0850399 
-0.342238 0.449156 -0.00452827 
-0.23789 -0.306823 0.0794858 
-0.271823 -0.276537 -0.00420207 
-0.326081 0.064625 -0.0323772 
-0.122058 0.218091 -0.0321231 
-0.125884 0.194878 0.0551961 
0.0241308 -0.323281 0.0216985 
-0.121442 -0.105774 -0.0811336 
0.116055 0.114717 -0.0715675 
-0.156723 0.108594 -0.117705 
0.040874 0.416893 0.135204 
0.0370048 -0.291125 -0.122225 
0.29053 -0.0724184 0.0240052 
0.271315 0.0217995 -0.0736844 
0.186298 0.280941 -0.0110251 
0.156526 0.322746 -0.13397 
0.330152 -0.335666 0.123582 
0.259256 -0.175565 -0.051935 
0.416035 0.187514 -0.0103347 
0.414223 0.231566 -0.100086 
0.448329 0.263962 0.137231 
-0.333397 -0.355093 0.117995 
-0.338698 -0.220182 -0.220045 
-0.447607 -0.0577672 -0.00810002 
-0.448686 0.134716 0.129023 
-0.279766 0.360604 0.02853 
-0.0578041 -0.182002 -0.110439 
-0.178698 -0.232393 0.00919167 
-0.233542 0.0104626 -0.0249205 
-0.291182 0.216509 0.0159768 
-0.207949 0.409035 0.1176 
0.21462 -0.0582003 -0.0773598 
0.00371073 -0.0856903 -0.151756 
-0.101996 -0.0336588 0.180282 
-0.0157636 0.239234 0.072477 
-0.0667484 0.349895 0.116371 
0.304866 -0.441425 0.0997335 
0.327567 -0.21367 0.135487 
0.18186 0.0413709 -0.11109 
0.25774 0.291317 0.0431578 
0.242408 0.45 0.00966573 
0.444512 -0.163441 0.0336229 
0.317465 0.379297 0.0267423 
0.449389 0.0889554 0.0179044 
0.428631 0.16114 0.0852882 
0.385964 0.369108 0.142599 
-0.40304 -0.39914 0.164744 
-0.44272 -0.291715 0.117866 
-0.196806 -0.0699325 -0.0310312 
-0.436819 0.264511 -0.0128545 
-0.390267 0.356187 0.0367611 
-0.208599 -0.39363 0.120638 
-0.238873 -0.0220353 0.271536 
-0.040998 -0.00845312 -0.0616985 
-0.289178 0.147988 -0.0736037 
-0.284939 0.401436 0.193383 
0.202251 -0.414943 0.0867712 
0.104061 -0.135741 -0.0504802 
0.0339811 0.0545571 -0.105307 
-0.0890436 0.106342 0.0966162 
-0.0555065 0.427242 0.216256 
0.307775 -0.406119 0.198386 
0.208918 -0.112719 0.0241908 
0.0905973 0.197974 0.042775 
0.268308 0.170736 0.234089 
0.15846 0.416251 -0.0330911 
0.403246 -0.44995 0.0940855 
0.335483 -0.165256 0.0592803 
-0.0927339 0.0121639 0.294564 
0.387531 0.201808 0.166878 
0.34588 0.453097 0.165249 
-0.438586 -0.450552 0.208226 
-0.376687 0.0446225 0.157096 
-0.400857 0.00390018 0.0613057 
-0.424497 0.162127 -0.0108859 
-0.449952 0.416615 0.101892 
-0.298745 -0.448842 0.131388 
-0.24033 -0.153925 0.0842334 
-0.197937 0.0227594 0.0677283 
-0.382048 0.0981572 0.254079 
-0.42276 0.413858 0.239067 
0.201365 -0.342828 0.301234 
-0.0447863 -0.147948 -0.0327234 
-0.0880604 0.0634376 0.00962076 
0.0226409 0.326375 0.0541956 
0.0114459 0.330688 0.194818 
0.196855 -0.24484 -0.0340155 
0.234505 -0.255247 0.16727 
0.204681 -0.0103369 0.038177 
0.196569 0.175243 0.0431618 
0.0830603 0.425204 0.0319706 
0.409551 -0.379996 0.165258 
0.449986 -0.161927 0.133453 
0.351723 0.0111826 0.0501108 
0.264663 0.164254 0.137618 
0.442778 0.3532 0.213301 
-0.348016 -0.343147 0.237333 
-0.200658 -0.0566376 0.170531 
-0.420037 0.00263257 0.268414 
-0.377266 0.230036 0.158757 
-0.367687 0.442336 0.152586 
-0.187545 -0.241973 0.110832 
-0.202098 -0.199244 0.236561 
-0.0896848 7.61694e-05 0.0869566 
-0.309612 0.267188 0.27573 
-0.230859 0.227667 0.106971 
-0.0265856 -0.105285 0.201679 
-0.00775507 -0.252872 -0.0429739 
-0.00439886 0.00292998 0.0306568 
0.25521 -0.144285 0.130445 
0.00718202 0.444373 0.269695 
0.212729 -0.398014 0.204013 
0.436264 -0.329468 0.297294 
0.322288 0.0581119 0.229868 
0.154035 0.258693 0.166702 
0.180028 0.364608 0.0497773 
0.39542 -0.40788 0.260242 
0.449038 -0.183105 0.256787 
0.377917 -0.049215 0.185331 
0.385471 0.117604 0.281635 
0.251359 0.432167 0.229856 
VERTICES 500 1000
1 0
1 1
1 2
1 3
1 4
1 5
1 6
1 7
1 8
1 9
1 10
1 11
1 12
1 13
1 14
1 15
1 16
1 17
1 18
1 19
1 20
1 21
1 22
1 23
1 24
1 25
1 26
1 27
1 28
1 29
1 30
1 31
1 32
1 33
1 34
1 35
1 36
1 37
1 38
1 39
1 40
1 41
1 42
1 43
1 44
1 45
1 46
1 47
1 48
1 49
1 50
1 51
1 52
1 53
1 54
1 55
1 56
1 57
1 58
1 59
1 60
1 61
1 62
1 63
1 64
1 65
1 66
1 67
1 68
1 69
1 70
1 71
1 72
1 73
1 74
1 75
1 76
1 77
1 78
1 79
1 80
1 81
1 82
1 83
1 84
1 85
1 86
1 87
1 88
1 89
1 90
1 91
1 92
1 93
1 94
1 95
1 96
1 97
1 98
1 99
1 100
1 101
1 102
1 103
1 104
1 105
1 106
1 107
1 108
1 109
1 110
1 111
1 112
1 113
1 114
1 115
1 116
1 117
1 118
1 119
1 120
1 121
1 122
1 123
1 124
1 125
1 126
1 127
1 128
1 129
1 130
1 131
1 132
1 133
1 134
1 135
1 136
1 137
1 138
1 139
1 140
1 141
1 142
1 143
1 144
1 145
1 146
1 147
1 148
1 149
1 150
1 151
1 152
1 153
1 154
1 155
1 156
1 157
1 158
1 159
1 160
1 161
1 162
1 163
1 164
1 165
1 166
1 167
1 168
1 169
1 170
1 171
1 172
1 173
1 174
1 175
1 176
1 177
1 178
1 179
1 180
1 181
1 182
1 183
1 184
1 185
1 186
1 187
1 188
1 189
1 190
1 191
1 192
1 193
1 194
1 195
1 196
1 197
1 198
1 199
1 200
1 201
1 202
1 203
1 204
1 205
1 206
1 207
1 208
1 209
1 210
1 211
1 212
1 213
1 214
1 215
1 216
1 217
1 218
1 219
1 220
1 221
1 222
1 223
1 224
1 225
1 226
1 227
1 228
1 229
1 230
1 231
1 232
1 233
1 234
1 235
1 236
1 237
1 238
1 239
1 240
1 241
1 242
1 243
1 244
1 245
1 246
1 247
1 248
1 249
1 250
1 251
1 252
1 253
1 254
1 255
1 256
1 257
1 258
1 259
1 260
1 261
1 262
1 263
1 264
1 265
1 266
1 267
1 268
1 269
1 270
1 271
1 272
1 273
1 274
1 275
1 276
1 277
1 278
1 279
1 280
1 281
1 282
1 283
1 284
1 285
1 286
1 287
1 288
1 289
1 290
1 291
1 292
1 293
1 294
1 295
1 296
1 297
1 298
1 299
1 300
1 301
1 302
1 303
1 304
1 305
1 306
1 307
1 308
1 309
1 310
1 311
1 312
1 313
1 314
1 315
1 316
1 317
1 318
1 319
1 320
1 321
1 322
1 323
1 324
1 325
1 326
1 327
1 328
1 329
1 330
1 331
1 332
1 333
1 334
1 335
1 336
1 337
1 338
1 339
1 340
1 341
1 342
1 343
1 344
1 345
1 346
1 347
1 348
1 349
1 350
1 351
1 352
1 353
1 354
1 355
1 356
1 357
1 358
1 359
1 360
1 361
1 362
1 363
1 364
1 365
1 366
1 367
1 368
1 369
1 370
1 371
1 372
1 373
1 374
1 375
1 376
1 377
1 378
1 379
1 380
1 381
1 382
1 383
1 384
1 385
1 386
1 387
1 388
1 389
1 390
1 391
1 392
1 393
1 394
1 395
1 396
1 397
1 398
1 399
1 400
1 401
1 402
1 403
1 404
1 405
1 406
1 407
1 408
1 409
1 410
1 411
1 412
1 413
1 414
1 415
1 416
1 417
1 418
1 419
1 420
1 421
1 422
1 423
1 424
1 425
1 426
1 427
1 428
1 429
1 430
1 431
1 432
1 433
1 434
1 435
1 436
1 437
1 438
1 439
1 440
1 441
1 442
1 443
1 444
1 445
1 446
1 447
1 448
1 449
1 450
1 451
1 452
1 453
1 454
1 455
1 456
1 457
1 458
1 459
1 460
1 461
1 462
1 463
1 464
1 465
1 466
1 467
1 468
1 469
1 470
1 471
1 472
1 473
1 474
1 475
1 476
1 477
1 478
1 479
1 480
1 481
1 482
1 483
1 484
1 485
1 486
1 487
1 488
1 489
1 490
1 491
1 492
1 493
1 494
1 495
1 496
1 497
1 498
1 499
POINT_DATA 500
SCALARS id int 1
LOOKUP_TABLE default
0
1
2
3
4
5
6
7
8
9
10
11
12
13
14
15
16
17
18
19
20
21
22
23
24
25
26
27
28
29
30
31
32
33
34
35
36
37
38
39
40
41
42
43
44
45
46
47
48
49
50
51
52
53
54
55
56
57
58
59
60
61
62
63
64
65
66
67
68
69
70
71
72
73
74
75
76
77
78
79
80
81
82
83
84
85
86
87
88
89
90
91
92
93
94
95
96
97
98
99
100
101
102
103
104
105
106
107
108
109
110
111
112
113
114
115
116
117
118
119
120
121
122
123
124
125
126
127
128
129
130
131
132
133
134
135
136
137
138
139
140
141
142
143
144
145
146
147
148
149
150
151
152
153
154
155
156
157
158
159
160
161
162
163
164
165
166
167
168
169
170
171
172
173
174
175
176
177
178
179
180
181
182
183
184
185
186
187
188
189
190
191
192
193
194
195
196
197
198
199
200
201
202
203
204
205
206
207
208
209
210
211
212
213
214
215
216
217
218
219
220
221
222
223
224
225
226
227
228
229
230
231
232
233
234
235
236
237
238
239
240
241
242
243
244
245
246
247
248
249
250
251
252
253
254
255
256
257
258
259
260
261
262
263
264
265
266
267
268
269
270
271
272
273
274
275
276
277
278
279
280
281
282
283
284
285
286
287
288
289
290
291
292
293
294
295
296
297
298
299
300
301
302
303
304
305
306
307
308
309
310
311
312
313
314
315
316
317
318
319
320
321
322
323
324
325
326
327
328
329
330
331
332
333
334
335
336
337
338
339
340
341
342
343
344
345
346
347
348
349
350
351
352
353
354
355
356
357
358
359
360
361
362
363
364
365
366
367
368
369
370
371
372
373
374
375
376
377
378
379
380
381
382
383
384
385
386
387
388
389
390
391
392
393
394
395
396
397
398
399
400
401
402
403
404
405
406
407
408
409
410
411
412
413
414
415
416
417
418
419
420
421
422
423
424
425
426
427
428
429
430
431
432
433
434
435
436
437
438
439
440
441
442
443
444
445
446
447
448
449
450
451
452
453
454
455
456
457
458
459
460
461
462
463
464
465
466
467
468
469
470
471
472
473
474
475
476
477
478
479
480
481
482
483
484
485
486
487
488
489
490
491
492
493
494
495
496
497
498
499
SCALARS type int 1
LOOKUP_TABLE default
0
0
0
0
0
0
0
0
0
0
0
0
0
0
0
0
0
0
0
0
0
0
0
0
0
0
0
0
0
0
0
0
0
0
0
0
0
0
0
0
0
0
0
0
0
0
0
0
0
0
0
0
0
0
0
0
0
0
0
0
0
0
0
0
0
0
0
0
0
0
0
0
0
0
0
0
0
0
0
0
0
0
0
0
0
0
0
0
0
0
0
0
0
0
0
0
0
0
0
0
0
0
0
0
0
0
0
0
0
0
0
0
0
0
0
0
0
0
0
0
0
0
0
0
0
0
0
0
0
0
0
0
0
0
0
0
0
0
0
0
0
0
0
0
0
0
0
0
0
0
0
0
0
0
0
0
0
0
0
0
0
0
0
0
0
0
0
0
0
0
0
0
0
0
0
0
0
0
0
0
0
0
0
0
0
0
0
0
0
0
0
0
0
0
0
0
0
0
0
0
0
0
0
0
0
0
0
0
0
0
0
0
0
0
0
0
0
0
0
0
0
0
0
0
0
0
0
0
0
0
0
0
0
0
0
0
0
0
0
0
0
0
0
0
0
0
0
0
0
0
0
0
0
0
0
0
0
0
0
0
0
0
0
0
0
0
0
0
0
0
0
0
0
0
0
0
0
0
0
0
0
0
0
0
0
0
0
0
0
0
0
0
0
0
0
0
0
0
0
0
0
0
0
0
0
0
0
0
0
0
0
0
0
0
0
0
0
0
0
0
0
0
0
0
0
0
0
0
0
0
0
0
0
0
0
0
0
0
0
0
0
0
0
0
0
0
0
0
0
0
0
0
0
0
0
0
0
0
0
0
0
0
0
0
0
0
0
0
0
0
0
0
0
0
0
0
0
0
0
0
0
0
0
0
0
0
0
0
0
0
0
0
0
0
0
0
0
0
0
0
0
0
0
0
0
0
0
0
0
0
0
0
0
0
0
0
0
0
0
0
0
0
0
0
0
0
0
0
0
0
0
0
0
0
0
0
0
0
0
0
0
0
0
0
0
0
0
0
0
0
0
0
0
0
0
0
0
0
0
0
0
0
0
0
0
0
0
0
0
0
0
0
0
0
0
0
0
0
0
0
0
0
0
0
0
0
0
0
0
0
0
0
0
0
0
0
0
0
0
0
SCALARS damp_viscous double 1
LOOKUP_TABLE default
0
0
0
0
0
0
0
0
0
0
0
0
0
0
0
0
0
0
0
0
0
0
0
0
0
0
0
0
0
0
0
0
0
0
0
0
0
0
0
0
0
0
0
0
0
0
0
0
0
0
0
0
0
0
0
0
0
0
0
0
0
0
0
0
0
0
0
0
0
0
0
0
0
0
0
0
0
0
0
0
0
0
0
0
0
0
0
0
0
0
0
0
0
0
0
0
0
0
0
0
0
0
0
0
0
0
0
0
0
0
0
0
0
0
0
0
0
0
0
0
0
0
0
0
0
0
0
0
0
0
0
0
0
0
0
0
0
0
0
0
0
0
0
0
0
0
0
0
0
0
0
0
0
0
0
0
0
0
0
0
0
0
0
0
0
0
0
0
0
0
0
0
0
0
0
0
0
0
0
0
0
0
0
0
0
0
0
0
0
0
0
0
0
0
0
0
0
0
0
0
0
0
0
0
0
0
0
0
0
0
0
0
0
0
0
0
0
0
0
0
0
0
0
0
0
0
0
0
0
0
0
0
0
0
0
0
0
0
0
0
0
0
0
0
0
0
0
0
0
0
0
0
0
0
0
0
0
0
0
0
0
0
0
0
0
0
0
0
0
0
0
0
0
0
0
0
0
0
0
0
0
0
0
0
0
0
0
0
0
0
0
0
0
0
0
0
0
0
0
0
0
0
0
0
0
0
0
0
0
0
0
0
0
0
0
0
0
0
0
0
0
0
0
0
0
0
0
0
0
0
0
0
0
0
0
0
0
0
0
0
0
0
0
0
0
0
0
0
0
0
0
0
0
0
0
0
0
0
0
0
0
0
0
0
0
0
0
0
0
0
0
0
0
0
0
0
0
0
0
0
0
0
0
0
0
0
0
0
0
0
0
0
0
0
0
0
0
0
0
0
0
0
0
0
0
0
0
0
0
0
0
0
0
0
0
0
0
0
0
0
0
0
0
0
0
0
0
0
0
0
0
0
0
0
0
0
0
0
0
0
0
0
0
0
0
0
0
0
0
0
0
0
0
0
0
0
0
0
0
0
0
0
0
0
0
0
0
0
0
0
0
0
0
0
0
0
0
0
0
0
0
0
0
0
0
0
0
0
0
0
0
0
0
0
0
0
0
0
0
0
SCALARS damp_numerical double 1
LOOKUP_TABLE default
0.5
0.5
0.5
0.5
0.5
0.5
0.5
0.5
0.5
0.5
0.5
0.5
0.5
0.5
0.5
0.5
0.5
0.5
0.5
0.5
0.5
0.5
0.5
0.5
0.5
0.5
0.5
0.5
0.5
0.5
0.5
0.5
0.5
0.5
0.5
0.5
0.5
0.5
0.5
0.5
0.5
0.5
0.5
0.5
0.5
0.5
0.5
0.5
0.5
0.5
0.5
0.5
0.5
0.5
0.5
0.5
0.5
0.5
0.5
0.5
0.5
0.5
0.5
0.5
0.5
0.5
0.5
0.5
0.5
0.5
0.5
0.5
0.5
0.5
0.5
0.5
0.5
0.5
0.5
0.5
0.5
0.5
0.5
0.5
0.5
0.5
0.5
0.5
0.5
0.5
0.5
0.5
0.5
0.5
0.5
0.5
0.5
0.5
0.5
0.5
0.5
0.5
0.5
0.5
0.5
0.5
0.5
0.5
0.5
0.5
0.5
0.5
0.5
0.5
0.5
0.5
0.5
0.5
0.5
0.5
0.5
0.5
0.5
0.5
0.5
0.5
0.5
0.5
0.5
0.5
0.5
0.5
0.5
0.5
0.5
0.5
0.5
0.5
0.5
0.5
0.5
0.5
0.5
0.5
0.5
0.5
0.5
0.5
0.5
0.5
0.5
0.5
0.5
0.5
0.5
0.5
0.5
0.5
0.5
0.5
0.5
0.5
0.5
0.5
0.5
0.5
0.5
0.5
0.5
0.5
0.5
0.5
0.5
0.5
0.5
0.5
0.5
0.5
0.5
0.5
0.5
0.5
0.5
0.5
0.5
0.5
0.5
0.5
0.5
0.5
0.5
0.5
0.5
0.5
0.5
0.5
0.5
0.5
0.5
0.5
0.5
0.5
0.5
0.5
0.5
0.5
0.5
0.5
0.5
0.5
0.5
0.5
0.5
0.5
0.5
0.5
0.5
0.5
0.5
0.5
0.5
0.5
0.5
0.5
0.5
0.5
0.5
0.5
0.5
0.5
0.5
0.5
0.5
0.5
0.5
0.5
0.5
0.5
0.5
0.5
0.5
0.5
0.5
0.5
0.5
0.5
0.5
0.5
0.5
0.5
0.5
0.5
0.5
0.5
0.5
0.5
0.5
0.5
0.5
0.5
0.5
0.5
0.5
0.5
0.5
0.5
0.5
0.5
0.5
0.5
0.5
0.5
0.5
0.5
0.5
0.5
0.5
0.5
0.5
0.5
0.5
0.5
0.5
0.5
0.5
0.5
0.5
0.5
0.5
0.5
0.5
0.5
0.5
0.5
0.5
0.5
0.5
0.5
0.5
0.5
0.5
0.5
0.5
0.5
0.5
0.5
0.5
0.5
0.5
0.5
0.5
0.5
0.5
0.5
0.5
0.5
0.5
0.5
0.5
0.5
0.5
0.5
0.5
0.5
0.5
0.5
0.5
0.5
0.5
0.5
0.5
0.5
0.5
0.5
0.5
0.5
0.5
0.5
0.5
0.5
0.5
0.5
0.5
0.5
0.5
0.5
0.5
0.5
0.5
0.5
0.5
0.5
0.5
0.5
0.5
0.5
0.5
0.5
0.5
0.5
0.5
0.5
0.5
0.5
0.5
0.5
0.5
0.5
0.5
0.5
0.5
0.5
0.5
0.5
0.5
0.5
0.5
0.5
0.5
0.5
0.5
0.5
0.5
0.5
0.5
0.5
0.5
0.5
0.5
0.5
0.5
0.5
0.5
0.5
0.5
0.5
0.5
0.5
0.5
0.5
0.5
0.5
0.5
0.5
0.5
0.5
0.5
0.5
0.5
0.5
0.5
0.5
0.5
0.5
0.5
0.5
0.5
0.5
0.5
0.5
0.5
0.5
0.5
0.5
0.5
0.5
0.5
0.5
0.5
0.5
0.5
0.5
0.5
0.5
0.5
0.5
0.5
0.5
0.5
0.5
0.5
0.5
0.5
0.5
0.5
0.5
0.5
0.5
0.5
0.5
0.5
0.5
0.5
0.5
0.5
0.5
0.5
0.5
0.5
0.5
0.5
0.5
0.5
0.5
0.5
0.5
0.5
0.5
0.5
0.5
0.5
0.5
0.5
0.5
0.5
0.5
0.5
0.5
0.5
0.5
0.5
0.5
0.5
0.5
0.5
0.5
0.5
0.5
0.5
0.5
0.5
0.5
0.5
0.5
0.5
0.5
0.5
0.5
0.5
0.5
SCALARS quat double 4
LOOKUP_TABLE default
0.963963 0.0875978 -0.0489361 0.246389 
0.779475 0.161074 0.605315 0.00826805 
0.986948 0.0854968 -0.0977429 -0.095233 
-0.372801 -0.469523 -0.561499 -0.570339 
0.0366023 0.71888 -0.372952 0.585473 
0.799589 -0.271859 -0.202819 0.495596 
0.147351 -0.35329 -0.238241 0.892589 
0.88685 0.0284492 0.317487 0.3345 
-0.114522 0.441339 0.889984 -0.00570706 
0.121771 0.0885904 -0.0234599 0.988318 
0.909543 -0.160353 -0.106888 0.368232 
0.186747 -0.904909 -0.280074 -0.260429 
0.111751 0.383378 -0.0144018 0.916693 
0.590222 0.7216 0.350745 -0.0889369 
0.352969 0.816171 -0.15263 0.431256 
0.995854 0.0831681 -0.0368316 -0.0011429 
0.643055 0.0432225 -0.04731 0.763134 
0.98389 0.0839243 -0.0168848 0.156949 
0.970638 0.113595 -0.0890238 0.192441 
-0.792789 0.145138 0.586922 0.0770959 
0.839768 0.108755 0.507802 -0.158427 
-0.331147 0.827697 -0.308299 0.33198 
0.803248 -0.206343 -0.503016 -0.243288 
0.557681 0.729945 -0.36763 -0.144985 
0.983963 0.105141 -0.0987904 0.10489 
0.940658 0.153259 -0.167854 0.25199 
-0.566934 0.740027 -0.282935 0.225597 
0.981728 0.160651 -0.0548586 -0.0859785 
0.549673 -0.489395 -0.417264 0.533145 
-0.165825 0.401963 -0.325437 0.839654 
0.721565 0.366755 0.518272 0.276095 
0.464755 -0.584699 -0.156252 -0.646309 
0.0796105 -0.0494393 -0.963992 0.248871 
0.180499 0.124745 0.0725729 0.97293 
0.565444 0.708161 0.205796 -0.369363 
0.362386 -0.130438 0.0842526 0.919002 
-0.294943 0.461877 -0.468203 0.693155 
0.227567 0.340185 0.267665 0.872263 
0.720183 -0.642654 -0.256612 0.0498255 
0.57044 0.65288 -0.0912151 -0.489923 
0.946139 0.159357 -0.156805 0.234177 
0.703873 0.195797 -0.103337 0.674943 
0.980584 -0.19147 -0.034184 0.0250101 
0.0169204 0.818306 0.554323 -0.151045 
0.707932 -0.577671 -0.343519 -0.217077 
0.376248 0.251494 -0.726492 0.517105 
0.552813 -0.175424 0.180965 -0.794277 
-0.945301 0.174321 -0.16489 0.220975 
0.442991 0.761972 -0.366871 0.297595 
-0.837447 0.510333 0.108423 -0.162747 
0.926357 0.302822 -0.207503 -0.084287 
0.315527 -0.108551 0.919918 -0.205936 
0.827895 -0.0469702 0.558897 0.00411634 
-0.683025 0.410515 -0.60297 -0.0371832 
-0.481999 0.526793 0.470996 -0.518005 
-0.614549 0.463481 0.490457 -0.408616 
0.117555 0.186181 0.961038 -0.167104 
0.15689 -0.057258 -0.808833 -0.563822 
-0.187767 0.0136952 0.784231 -0.591217 
0.325645 -0.922499 -0.20548 0.027001 
-0.459451 0.243463 0.655885 -0.547216 
-0.856564 -0.0627421 0.110037 0.500253 
-0.257823 -0.711154 0.12687 0.641631 
0.0490623 0.244687 0.962418 0.107114 
-0.0980962 0.0356927 0.993089 -0.0536411 
0.921316 0.248762 -0.261549 -0.144522 
-0.140883 -0.95278 -0.159132 0.216885 
0.967763 -0.146356 -0.131466 0.15726 
0.896704 -0.0064313 0.405495 -0.177356 
-0.910855 -0.11385 -0.133932 -0.373422 
0.580266 -0.349102 -0.309557 0.667528 
-0.550511 -0.752974 -0.350267 -0.0853251 
0.358154 0.347463 0.0299128 -0.866083 
-0.564514 0.763748 -0.294771 -0.105463 
0.9482 -0.243827 0.017286 -0.202894 
0.960086 0.124371 -0.125214 -0.216998 
0.520563 -0.106226 -0.620449 0.576866 
0.882378 -0.22912 0.397425 -0.104723 
-0.533204 -0.212548 -0.135508 0.807561 
-0.552195 0.164855 -0.140051 -0.805164 
0.88262 0.285034 -0.0319039 -0.372451 
-0.414943 0.865905 0.00224873 0.27933 
0.962882 -0.0591095 0.254176 -0.0689876 
-0.240327 0.815104 -0.273353 0.450696 
0.984972 -0.161362 0.00179598 -0.0615509 
0.781204 -0.450206 -0.398182 0.168779 
-0.174129 -0.316835 0.133895 -0.922695 
0.802639 0.393822 0.328128 -0.304972 
0.320463 0.92125 0.0796958 -0.205551 
-0.165223 0.552608 -0.632968 0.516407 
0.881774 -0.201435 0.321761 -0.279942 
-0.824913 0.346107 -0.446604 -0.0165326 
0.898767 -0.0254054 -0.369398 0.234772 
0.869864 -0.308493 0.382678 0.0415495 
0.794716 0.017081 0.370414 -0.48055 
0.421978 -0.568437 -0.240362 -0.664108 
0.318835 -0.78826 0.472939 0.230909 
0.236422 -0.142614 -0.72868 0.626731 
-0.620566 0.583982 0.0652889 -0.519231 
0.986735 -0.0699035 -0.0317915 -0.143026 
0.846396 -0.0710814 -0.108873 -0.516438 
0.280398 0.545509 0.731022 0.299005 
0.00455774 0.437692 -0.898469 0.0340297 
-0.641206 -0.603435 -0.457874 -0.122767 
-0.237471 -0.111519 -0.35349 0.897895 
0.934605 -0.146299 0.277952 0.166891 
-0.643499 0.42907 0.146631 -0.61669 
0.100824 0.663253 0.727045 -0.146065 
0.823647 0.376786 -0.0565083 -0.420054 
0.00820453 0.210564 -0.974791 0.0733348 
0.284417 -0.594941 -0.274777 0.699749 
-0.462309 -0.32097 0.587076 0.581885 
-0.0773813 -0.445602 0.289553 -0.84357 
0.811061 -0.271315 0.489081 0.171372 
-0.227313 0.0720043 0.0996585 0.966029 
0.954823 -0.158131 0.238506 0.0801353 
0.0421356 -0.86657 0.495472 0.0422961 
0.473637 -0.0782714 -0.388928 0.786306 
0.885385 0.0896581 0.102726 0.444412 
0.262824 0.136414 -0.808204 0.509039 
0.0283433 0.072826 0.482542 -0.87238 
-0.134114 -0.258994 -0.692709 0.659614 
0.349725 -0.447294 -0.41583 -0.710427 
-0.936528 -0.226614 -0.175352 0.202022 
0.779378 -0.56352 0.0577171 0.267738 
0.783917 0.283499 -0.53142 -0.150651 
0.44085 0.626162 0.53402 -0.358322 
0.527556 0.290381 0.170402 -0.779953 
-0.53747 0.264085 0.776982 -0.194125 
0.461107 -0.448668 0.683817 0.344196 
-0.00635942 0.483078 0.731531 -0.4811 
-0.978006 0.0171926 -0.0488153 0.202053 
-0.0150239 -0.572731 -0.818886 0.0343213 
0.21033 0.20032 -0.948988 0.122694 
0.16524 -0.890559 0.263233 0.332128 
0.12852 -0.0827804 0.835702 0.527477 
0.278137 0.732141 0.21656 0.582848 
-0.70395 -0.703308 0.070327 -0.0697655 
0.326513 0.901942 -0.182772 -0.215601 
-0.0343861 0.805887 -0.590805 0.0176847 
-0.610738 0.0950084 -0.785463 0.0319447 
0.44871 -0.226805 0.345889 0.792199 
-0.101452 0.514806 -0.0695217 0.848439 
0.944235 -0.233277 -0.190618 0.132914 
0.033266 -0.514594 -0.777452 -0.360077 
-0.486345 -0.82598 0.228572 0.170237 
0.73866 -0.504053 0.350923 -0.277786 
0.281353 -0.562972 0.158547 -0.760767 
-0.128206 -0.554373 -0.114243 -0.81436 