# vtk DataFile Version 2.0
Generated by NetDEM
ASCII 
DATASET POLYDATA
POINTS 500 double
-0.419229 -0.408375 -0.464197 
-0.450007 -0.192218 -0.450028 
-0.404463 -0.0131171 -0.46104 
-0.44906 0.107685 -0.450059 
-0.434985 0.351086 -0.450038 
-0.271529 -0.429814 -0.458939 
-0.302698 -0.2238 -0.450018 
-0.19038 -0.00908848 -0.450043 
-0.173742 0.177883 -0.46396 
-0.256247 0.368252 -0.463935 
-0.0556213 -0.396842 -0.46116 
-0.147733 -0.13155 -0.450051 
-0.0549097 -0.0940935 -0.450039 
0.039229 0.180918 -0.453326 
-0.0289307 0.319208 -0.443809 
0.19247 -0.40243 -0.463319 
0.169543 -0.210358 -0.463371 
0.172598 -0.00277362 -0.462216 
0.162583 0.20569 -0.465062 
0.297125 0.404843 -0.418727 
0.449987 -0.410466 -0.450023 
0.43262 -0.297321 -0.450007 
0.340896 -0.0112914 -0.450013 
0.373597 0.0840634 -0.450039 
0.37233 0.440625 -0.464865 
-0.431835 -0.411586 -0.394292 
-0.449955 -0.273136 -0.391298 
-0.406595 -0.015383 -0.389236 
-0.446539 0.177423 -0.378333 
-0.449823 0.450007 -0.450024 
-0.338534 -0.407002 -0.409203 
-0.2522 -0.131418 -0.450007 
-0.159849 -0.101786 -0.218029 
-0.304471 0.165249 -0.465041 
-0.152382 0.405633 -0.452841 
-0.0930408 -0.388956 -0.399968 
0.30586 -0.24882 -0.140464 
-0.0484814 -0.0182586 -0.31371 
0.0312953 0.260484 -0.451861 
0.126386 0.30269 -0.435626 
0.200134 -0.416835 -0.391096 
0.166854 -0.207063 -0.390296 
0.175331 0.0193405 -0.38683 
0.196547 0.114053 -0.45474 
0.286091 0.366971 -0.32688 
0.378521 -0.450002 -0.392327 
0.435581 -0.355278 -0.3679 
0.275135 -0.211536 -0.450014 
0.450003 0.141953 -0.421575 
0.42606 0.342292 -0.456547 
-0.436682 -0.440971 -0.326032 
-0.287526 -0.21684 -0.351428 
-0.30142 -0.00662575 -0.437771 
-0.288596 0.273996 -0.450017 
-0.450018 0.277329 -0.384244 
-0.18355 -0.37082 -0.451394 
0.184777 -0.338054 -0.305754 
-0.241211 -0.0512529 -0.189292 
-0.173376 0.0787948 -0.451389 
-0.350564 0.330542 -0.338248 
0.0441416 -0.437705 -0.450396 
0.205593 -0.283582 -0.167003 
0.203785 0.0578057 -0.219315 
-0.0383472 0.2248 -0.396255 
0.255751 0.333113 -0.463078 
0.192025 -0.437911 -0.320496 
0.0527526 -0.0976848 -0.450907 
0.16101 0.0647987 -0.333161 
0.267867 0.0625657 -0.441351 
0.11251 0.13866 -0.396512 
0.28466 -0.446747 -0.450007 
0.375527 -0.212932 -0.450118 
0.378426 -0.111356 -0.450039 
0.449897 0.227575 -0.366225 
0.4373 0.256699 -0.459991 
-0.43205 -0.453024 -0.24294 
-0.178097 -0.157558 -0.358409 
-0.237085 -0.000803537 -0.35327 
-0.26418 0.0892289 -0.406731 
-0.353371 0.141379 -0.356793 
-0.164514 -0.449942 -0.396092 
-0.124739 -0.0548764 -0.390106 
-0.240979 0.0461555 -0.228617 
-0.055203 0.130556 -0.447139 
-0.358498 0.383174 -0.406368 
0.085494 -0.451554 -0.354956 
0.444681 -0.342569 -0.0909553 
-0.188182 -0.232941 -0.450007 
0.0164769 0.0478376 -0.450377 
0.0688823 0.398312 -0.412592 
0.25956 -0.445459 -0.247908 
0.150949 -0.320084 -0.402419 
0.116042 0.0708257 -0.275598 
0.267582 0.173892 -0.443301 
0.142162 0.450003 -0.450017 
0.347274 -0.308239 -0.368115 
0.45003 -0.105525 -0.380527 
0.389799 0.151422 -0.342007 
0.331786 0.310903 -0.412078 
0.438297 0.370921 -0.377262 
-0.385851 -0.439681 -0.170538 
-0.369325 -0.356516 -0.125921 
-0.295479 -0.0423966 -0.281105 
-0.360339 0.068897 -0.425235 
-0.450004 0.432534 -0.351586 
-0.271689 -0.442264 -0.362333 
-0.0628989 -0.158413 -0.373869 
-0.241758 0.0343786 -0.129338 
-0.00311509 -0.0256731 -0.397253 
-0.424288 0.243191 -0.463735 
0.0838265 -0.343008 -0.440956 
0.355766 -0.21043 -0.0626722 
0.0448489 -0.121344 -0.354227 
0.0250077 0.0408335 -0.356338 
-0.00353689 0.434926 -0.463804 
0.300987 -0.386688 -0.220912 
0.259369 -0.316401 -0.424931 
0.0345723 0.0683598 -0.265235 
0.250768 0.245083 -0.385111 
0.346853 0.449873 -0.27666 
0.311509 -0.397307 -0.340057 
0.450047 -0.206162 -0.383886 
0.44992 -0.0309831 -0.450011 
0.345835 0.211985 -0.40829 
0.400219 0.452379 -0.374565 
-0.462215 -0.451843 -0.126779 
-0.32154 -0.141348 -0.291609 
-0.450976 -0.0279146 -0.322347 
-0.254116 0.198191 -0.394597 
-0.302251 0.450003 -0.369119 
-0.169137 -0.373895 -0.342234 
-0.08399 -0.219681 -0.450025 
-0.198772 -0.163668 -0.149714 
-0.136395 0.151335 -0.402117 
-0.227452 0.336951 -0.394417 
-0.0901263 -0.307676 -0.451243 
0.282348 -0.320726 -0.0750664 
0.450004 0.0531295 -0.16766 
0.0394786 0.122155 -0.334195 
-0.11848 0.312712 -0.413509 
0.145059 -0.447791 -0.255143 
0.239821 -0.14006 -0.395061 
0.106606 -0.0215085 -0.230305 
0.195771 0.306608 -0.34149 
0.199635 0.386317 -0.397193 
0.450003 -0.443303 -0.322702 
0.328517 -0.172552 -0.371747 
0.251494 -0.0587755 -0.450022 
0.448163 0.0476744 -0.388292 
0.440807 0.409452 -0.301145 
-0.438032 -0.458102 -0.0129152 
-0.228932 -0.175052 -0.274104 
-0.422564 -0.109691 -0.40839 
-0.207313 0.26887 -0.338583 
-0.347629 0.239086 -0.377257 
-0.145192 -0.292619 -0.3733 
0.127913 -0.450012 -0.0963315 
-0.302935 0.368014 -0.191354 
-0.104726 0.274117 -0.332579 
-0.221718 0.461463 -0.451595 
-0.00151958 -0.33887 -0.372579 
0.114608 -0.243267 -0.156822 
-0.1824 -0.0687055 -0.309644 
0.0162958 0.200683 -0.305117 
0.0168077 0.295736 -0.352067 
0.0738536 -0.405874 -0.275955 
0.137954 -0.0986628 -0.402015 
0.255236 -0.116074 -0.267131 
0.235873 0.185279 -0.328284 
0.137306 0.448781 -0.35015 
0.38458 -0.230136 -0.312206 
0.343737 -0.067225 -0.367175 
0.318705 0.0528139 -0.372532 
0.406554 0.300793 -0.310013 
0.446776 0.379041 -0.216871 
-0.323382 -0.445132 -0.0958977 
-0.450013 -0.100318 -0.26915 
-0.359478 0.0107119 -0.261887 
-0.450003 0.0698625 -0.357497 
-0.414064 0.265454 -0.291744 
-0.2642 -0.310839 -0.446292 
-0.183068 -0.27571 -0.263586 
-0.142497 0.399288 -0.0880702 
-0.121476 0.190963 -0.335713 
-0.13679 0.441199 -0.355775 
-0.000549961 -0.435084 -0.358554 
0.0164016 -0.094335 -0.262245 
0.0159705 -0.224253 -0.450007 
-0.0242436 0.271635 -0.254454 
-0.0041644 0.406672 -0.370677 
0.0714658 -0.425946 -0.175488 
0.099869 -0.0408795 -0.334316 
0.284456 -0.160092 -0.192526 
0.201027 0.133892 -0.278101 
0.247394 0.450013 -0.286892 
0.44973 -0.307845 -0.28102 
0.449976 -0.145571 -0.288918 
0.366661 0.037368 -0.286174 
0.319018 0.252468 -0.308782 
0.3838 0.428791 -0.201565 
-0.246902 -0.445501 -0.170662 
-0.445361 0.231702 -0.202963 
-0.290435 0.187231 -0.1927 
-0.146399 0.0704642 -0.333714 
-0.369401 0.449942 -0.295025 
-0.230549 -0.348133 -0.24678 
-0.0436371 -0.258313 -0.322157 
0.0169366 -0.242411 -0.244201 
-0.100481 0.119663 -0.245355 
-0.164777 0.34794 -0.330684 
-0.0462477 -0.384325 -0.29678 
-0.194605 -0.0942801 0.15043 
-0.0298488 0.207148 -0.171989 
-0.0541889 0.101497 -0.333595 
0.106679 0.355129 -0.337797 
0.262119 -0.437205 -0.145062 
0.21874 -0.197269 -0.311731 
0.291721 -0.105677 -0.130192 
0.149813 0.22353 -0.297113 
0.193293 0.362415 -0.265934 
0.406815 -0.392326 -0.2483 
0.437272 -0.224223 -0.227506 
0.436428 -0.0280451 -0.318821 
0.303726 0.116042 -0.296557 
0.409767 0.403245 -0.128133 
-0.260695 -0.334304 -0.155659 
-0.420083 -0.334081 -0.317872 
-0.434771 0.338986 -0.136295 
-0.34277 0.324488 -0.0730386 
-0.448332 0.421454 -0.0176269 
-0.143283 -0.419927 -0.260076 
-0.0501274 0.139621 -0.0762448 
-0.259242 -0.174311 -0.0396705 
-0.180036 0.176442 -0.198543 
-0.15828 0.338679 -0.223632 
-0.066461 -0.383762 -0.212181 
-0.140189 -0.14085 -0.0305471 
-0.109739 -0.0210705 -0.186768 
-0.00841319 0.109944 -0.200911 
0.0275482 0.447203 -0.281654 
0.297633 -0.330008 -0.174587 
0.250466 -0.292235 -0.342627 
0.349759 -0.0505133 -0.0812133 
0.150778 0.277074 -0.232225 
0.209513 0.401407 -0.146253 
0.356771 -0.450011 -0.174523 
0.4499 -0.199575 -0.0945975 
0.339061 0.12904 -0.0214132 
0.450008 0.151988 -0.182693 
0.423132 0.385939 -0.046901 
-0.295731 -0.322369 -0.350138 
-0.120332 -0.202591 -0.290344 
-0.327343 -0.0141092 -0.158272 
-0.222695 0.195453 -0.272471 
-0.419907 0.44751 -0.208757 
-0.250329 -0.430268 -0.276441 
0.0922848 -0.280482 -0.312201 
-0.306789 0.255812 -0.13753 
-0.244821 0.299611 -0.212516 
-0.148766 0.441899 -0.251557 
0.0127235 -0.381381 -0.172033 
0.45003 -0.391498 -0.00395622 
0.0757564 0.439787 -0.190934 
-0.0748535 0.406125 -0.325592 
-0.040451 0.44917 -0.223182 
0.356593 -0.392798 -0.09653 
0.372937 -0.0985093 -0.176456 
0.189586 -0.0232258 -0.292572 
0.217927 0.203257 -0.214873 
0.0911844 0.243225 -0.369131 
0.351902 -0.306049 -0.255878 
0.348276 -0.152289 -0.261078 
0.450014 0.0925693 -0.288024 
0.450016 0.21124 -0.2676 
0.406462 0.451867 -0.0262098 
-0.341282 -0.39404 0.00263137 
-0.138504 -0.346051 -0.160227 
-0.435636 -0.114033 -0.185152 
-0.450008 0.0948938 -0.186621 
-0.342794 0.197451 -0.274618 
-0.146986 -0.444726 -0.176377 
-0.0689757 -0.278013 -0.206627 
-0.225804 0.448485 -0.304579 
-0.282013 0.309537 -0.28509 
-0.227155 0.433723 -0.18951 
0.0396454 -0.407067 -0.0879223 
-0.115702 0.450006 0.111399 
0.0363012 0.183507 -0.100824 
-0.0719948 0.307844 -0.206489 
0.0119826 0.365966 -0.220526 
0.271554 -0.41511 -0.0358765 
0.0292652 -0.0942486 -0.0226415 
0.145161 -0.0403774 -0.147518 
0.286923 0.1753 -0.161336 
0.057679 0.261281 -0.174977 
0.398442 -0.283004 -0.156561 
0.450023 -0.140087 -0.174967 
0.329623 -0.0539638 -0.268061 
0.450006 0.27993 -0.194946 
0.30151 0.415313 -0.0937673 
-0.2922 -0.352116 -0.0656382 
-0.424038 -0.000445559 -0.201948 
-0.394763 -0.28938 -0.0792339 
-0.430424 0.138634 -0.287583 
-0.450008 0.450007 -0.113431 
-0.157591 -0.423698 -0.0769431 
-0.132294 -0.318473 -0.0637813 
-0.283656 0.088202 -0.308664 
-0.133654 0.27614 -0.119354 
-0.244534 0.385017 -0.105779 
-0.0226477 -0.425492 -0.0245299 
-0.408728 -0.176742 -0.325514 
0.00397891 -0.00219135 -0.22542 
-0.0380163 0.288888 -0.106341 
-0.0100146 0.443856 -0.135048 
0.150345 -0.383941 -0.0213746 
0.449051 0.00397105 0.00998629 
0.0758877 -0.0275878 -0.082054 
0.300692 0.335862 -0.229448 
0.283104 0.449924 -0.193443 
0.373125 -0.450001 -0.0297171 
0.435629 -0.0485505 0.0810997 
0.246256 -0.0524498 -0.350383 
0.347028 0.257411 -0.203148 
0.438277 0.452276 0.0633362 
-0.352336 -0.213391 -0.0332125 
-0.395675 -0.286557 -0.194026 
-0.411466 0.10152 -0.108024 
-0.388947 0.321898 -0.213085 
-0.450011 0.360595 -0.282147 
-0.173099 -0.435812 0.0404355 
-0.0598763 -0.150453 -0.230142 
-0.222407 0.293995 -0.0995195 
-0.100841 0.389165 -0.174443 
-0.0747658 0.438352 -0.0536564 
-0.0917484 -0.449432 0.0175441 
0.081445 -0.166269 -0.237825 
-0.072097 0.0657626 -0.139966 
0.0384022 0.249757 -0.0436177 
0.00710214 0.422725 -0.0641969 
0.137599 -0.342822 -0.118029 
0.17829 -0.189772 -0.227444 
0.118241 0.152649 -0.209703 
0.308504 0.2211 -0.0771089 
0.169579 0.450014 -0.223979 
0.44999 -0.41716 -0.159291 
0.319394 -0.264487 0.0131738 
0.413615 -0.0231635 -0.221599 
0.366789 0.165282 -0.236606 
0.415022 0.269754 0.147781 
-0.420147 -0.378719 0.0506971 
-0.449999 -0.220227 -0.245484 
-0.366169 0.219206 -0.0866799 
-0.447722 0.0595142 -0.0171306 
-0.45002 0.19264 -0.111046 
-0.224011 -0.379241 -0.00829875 
-0.276464 -0.106858 -0.111485 
-0.325815 -0.104654 -0.19842 
-0.190904 0.354774 -0.00724432 
-0.131281 0.400521 0.0149686 
0.0371386 -0.189471 -0.134406 
-0.151065 -0.250229 -0.134542 
0.217477 0.122044 -0.119705 
0.101383 0.324932 -0.0745698 
-0.0221854 0.439797 0.0279676 
0.0814406 -0.217147 -0.0328311 
0.455217 -0.0684756 -0.114599 
0.281952 0.0641592 -0.0387646 
0.184952 0.226812 -0.129129 
0.102504 0.33348 0.0623352 
0.399627 -0.082894 -0.0126346 
0.449936 -0.269483 -0.0227567 
0.363097 0.00996988 -0.141949 
0.42568 0.115061 -0.0930009 
0.322569 0.322305 -0.12958 
-0.426214 -0.195192 -0.1549 
-0.450002 -0.235467 -0.0399355 
-0.399224 -0.007639 -0.105778 
-0.450002 0.27985 0.0479779 
-0.340116 0.450006 -0.147829 
-0.237346 -0.301564 0.0574358 
-0.273752 -0.271725 -0.0222618 
-0.325943 0.0669651 -0.0624313 
-0.120305 0.219012 -0.0508785 
-0.124394 0.190748 0.0192455 
0.0265182 -0.310601 -0.0255592 
-0.119228 -0.106626 -0.126718 
0.108626 0.114532 -0.104003 
-0.157336 0.104554 -0.133257 
0.0428185 0.40529 0.102469 
0.0395281 -0.292059 -0.155405 
0.28301 -0.0737356 -0.0223955 
0.26485 0.0240355 -0.110038 
0.184379 0.284706 -0.0497028 
0.136949 0.334238 -0.169076 
0.32595 -0.343329 0.0743325 
0.257345 -0.180515 -0.0799531 
0.416752 0.19153 -0.0290008 
0.404203 0.240068 -0.115511 
0.436939 0.285534 -0.0302078 
-0.335404 -0.341395 0.0843063 
-0.339542 -0.233748 -0.257752 
-0.448922 -0.064065 -0.0381392 
-0.450003 0.129104 0.0651525 
-0.278169 0.367696 -0.0101166 
-0.0649039 -0.182292 -0.14631 
-0.178152 -0.232894 -0.0398547 
-0.242454 -0.00752241 -0.0385569 
-0.285172 0.220051 -0.0213264 
-0.204386 0.41327 0.0793093 
0.206148 -0.0601809 -0.103005 
-0.00082912 -0.0816039 -0.164572 
-0.138029 -0.0320425 0.0963005 
-0.0280141 0.246277 0.0207311 
-0.0742531 0.343668 0.0619775 
0.314604 -0.440951 0.064774 
0.329998 -0.210867 0.0973907 
0.175192 0.038288 -0.134273 
0.264785 0.285317 -0.0103639 
0.239228 0.450003 -0.0238128 
0.449991 -0.169809 0.000872382 
0.317405 0.360194 -0.0176521 
0.450001 0.0888253 0.000375588 
0.434359 0.163257 0.0652868 
0.382421 0.364061 0.0613822 
-0.401623 -0.39055 0.141017 
-0.428394 -0.265477 0.0529756 
-0.194634 -0.0678295 -0.0847517 
-0.442741 0.283458 -0.0687815 
-0.386687 0.349079 0.0133624 
-0.209736 -0.392036 0.0910499 
-0.253772 -0.0295786 0.0912277 
-0.0433477 -0.0164544 -0.0908382 
-0.274141 0.133884 -0.113726 
-0.286955 0.395715 0.145723 
0.19105 -0.438682 0.029442 
0.117311 -0.13773 -0.148862 
0.0302385 0.0543526 -0.120998 
-0.0867749 0.10918 0.051993 
-0.0417201 0.405632 0.145703 
0.311493 -0.414973 0.159079 
0.202734 -0.117166 -0.0082391 
0.10316 0.19143 -0.0361382 
0.263691 0.170987 0.125703 
0.153927 0.417617 -0.0647609 
0.412643 -0.450023 0.0679612 
0.334739 -0.159876 0.0210299 
-0.21456 0.0999755 -0.0584558 
0.358074 0.213388 0.106107 
0.320389 0.446404 0.0453947 
-0.441851 -0.450018 0.166071 
-0.279158 0.049221 0.0351443 
-0.391881 -0.0046035 0.0189906 
-0.415787 0.153907 -0.025473 
-0.450007 0.416696 0.0822401 
-0.295344 -0.446739 0.0611192 
-0.23699 -0.153969 0.055681 
-0.170046 0.0274726 0.0209403 
-0.334918 0.126322 0.0288945 
-0.425455 0.403902 0.183151 
0.236949 -0.246485 0.111082 
-0.0471909 -0.143985 -0.0671583 
-0.0911727 0.0605236 -0.0308874 
0.023252 0.335233 0.00264977 
0.0111383 0.302862 0.0916996 
0.188031 -0.245185 -0.0803225 
0.212648 -0.290515 0.0209387 
0.186828 -0.00625418 -0.031577 
0.192278 0.170671 -0.0187021 
0.0807331 0.426622 0.00275441 
0.425054 -0.352014 0.0844429 
0.449949 -0.146063 0.0980079 
0.344145 0.00628448 0.00953666 
0.268917 0.168764 0.0377524 
0.451895 0.353521 0.110572 
-0.312168 -0.309085 0.149096 
-0.193611 -0.0701146 0.0224014 
-0.436542 -0.00977865 0.122515 
-0.370828 0.220319 0.0342864 
-0.359477 0.449993 0.108585 
-0.173762 -0.240816 0.0601459 
-0.187709 -0.192799 0.134711 
-0.0873933 -0.0306224 0.0100798 
-0.306115 0.306113 0.0605123 
-0.213066 0.238355 0.0475084 
-0.0477828 -0.119291 0.028152 
-0.0184693 -0.25552 -0.0867523 
0.0182605 0.002972 -0.0145092 
0.233644 -0.160369 0.0551766 
0.0121333 0.448051 0.21102 
0.217462 -0.366409 0.091913 
0.445149 -0.29353 0.151188 
0.304635 0.0636034 0.0817654 
0.181673 0.249257 0.0497304 
0.184496 0.366201 0.0153664 
0.405198 -0.410292 0.163257 
0.448896 -0.202677 0.180431 
0.323339 -0.0710387 0.0715389 
0.398053 0.0851212 0.116637 
0.234031 0.42497 0.0873708 
VERTICES 500 1000
1 0
1 1
1 2
1 3
1 4
1 5
1 6
1 7
1 8
1 9
1 10
1 11
1 12
1 13
1 14
1 15
1 16
1 17
1 18
1 19
1 20
1 21
1 22
1 23
1 24
1 25
1 26
1 27
1 28
1 29
1 30
1 31
1 32
1 33
1 34
1 35
1 36
1 37
1 38
1 39
1 40
1 41
1 42
1 43
1 44
1 45
1 46
1 47
1 48
1 49
1 50
1 51
1 52
1 53
1 54
1 55
1 56
1 57
1 58
1 59
1 60
1 61
1 62
1 63
1 64
1 65
1 66
1 67
1 68
1 69
1 70
1 71
1 72
1 73
1 74
1 75
1 76
1 77
1 78
1 79
1 80
1 81
1 82
1 83
1 84
1 85
1 86
1 87
1 88
1 89
1 90
1 91
1 92
1 93
1 94
1 95
1 96
1 97
1 98
1 99
1 100
1 101
1 102
1 103
1 104
1 105
1 106
1 107
1 108
1 109
1 110
1 111
1 112
1 113
1 114
1 115
1 116
1 117
1 118
1 119
1 120
1 121
1 122
1 123
1 124
1 125
1 126
1 127
1 128
1 129
1 130
1 131
1 132
1 133
1 134
1 135
1 136
1 137
1 138
1 139
1 140
1 141
1 142
1 143
1 144
1 145
1 146
1 147
1 148
1 149
1 150
1 151
1 152
1 153
1 154
1 155
1 156
1 157
1 158
1 159
1 160
1 161
1 162
1 163
1 164
1 165
1 166
1 167
1 168
1 169
1 170
1 171
1 172
1 173
1 174
1 175
1 176
1 177
1 178
1 179
1 180
1 181
1 182
1 183
1 184
1 185
1 186
1 187
1 188
1 189
1 190
1 191
1 192
1 193
1 194
1 195
1 196
1 197
1 198
1 199
1 200
1 201
1 202
1 203
1 204
1 205
1 206
1 207
1 208
1 209
1 210
1 211
1 212
1 213
1 214
1 215
1 216
1 217
1 218
1 219
1 220
1 221
1 222
1 223
1 224
1 225
1 226
1 227
1 228
1 229
1 230
1 231
1 232
1 233
1 234
1 235
1 236
1 237
1 238
1 239
1 240
1 241
1 242
1 243
1 244
1 245
1 246
1 247
1 248
1 249
1 250
1 251
1 252
1 253
1 254
1 255
1 256
1 257
1 258
1 259
1 260
1 261
1 262
1 263
1 264
1 265
1 266
1 267
1 268
1 269
1 270
1 271
1 272
1 273
1 274
1 275
1 276
1 277
1 278
1 279
1 280
1 281
1 282
1 283
1 284
1 285
1 286
1 287
1 288
1 289
1 290
1 291
1 292
1 293
1 294
1 295
1 296
1 297
1 298
1 299
1 300
1 301
1 302
1 303
1 304
1 305
1 306
1 307
1 308
1 309
1 310
1 311
1 312
1 313
1 314
1 315
1 316
1 317
1 318
1 319
1 320
1 321
1 322
1 323
1 324
1 325
1 326
1 327
1 328
1 329
1 330
1 331
1 332
1 333
1 334
1 335
1 336
1 337
1 338
1 339
1 340
1 341
1 342
1 343
1 344
1 345
1 346
1 347
1 348
1 349
1 350
1 351
1 352
1 353
1 354
1 355
1 356
1 357
1 358
1 359
1 360
1 361
1 362
1 363
1 364
1 365
1 366
1 367
1 368
1 369
1 370
1 371
1 372
1 373
1 374
1 375
1 376
1 377
1 378
1 379
1 380
1 381
1 382
1 383
1 384
1 385
1 386
1 387
1 388
1 389
1 390
1 391
1 392
1 393
1 394
1 395
1 396
1 397
1 398
1 399
1 400
1 401
1 402
1 403
1 404
1 405
1 406
1 407
1 408
1 409
1 410
1 411
1 412
1 413
1 414
1 415
1 416
1 417
1 418
1 419
1 420
1 421
1 422
1 423
1 424
1 425
1 426
1 427
1 428
1 429
1 430
1 431
1 432
1 433
1 434
1 435
1 436
1 437
1 438
1 439
1 440
1 441
1 442
1 443
1 444
1 445
1 446
1 447
1 448
1 449
1 450
1 451
1 452
1 453
1 454
1 455
1 456
1 457
1 458
1 459
1 460
1 461
1 462
1 463
1 464
1 465
1 466
1 467
1 468
1 469
1 470
1 471
1 472
1 473
1 474
1 475
1 476
1 477
1 478
1 479
1 480
1 481
1 482
1 483
1 484
1 485
1 486
1 487
1 488
1 489
1 490
1 491
1 492
1 493
1 494
1 495
1 496
1 497
1 498
1 499
POINT_DATA 500
SCALARS id int 1
LOOKUP_TABLE default
0
1
2
3
4
5
6
7
8
9
10
11
12
13
14
15
16
17
18
19
20
21
22
23
24
25
26
27
28
29
30
31
32
33
34
35
36
37
38
39
40
41
42
43
44
45
46
47
48
49
50
51
52
53
54
55
56
57
58
59
60
61
62
63
64
65
66
67
68
69
70
71
72
73
74
75
76
77
78
79
80
81
82
83
84
85
86
87
88
89
90
91
92
93
94
95
96
97
98
99
100
101
102
103
104
105
106
107
108
109
110
111
112
113
114
115
116
117
118
119
120
121
122
123
124
125
126
127
128
129
130
131
132
133
134
135
136
137
138
139
140
141
142
143
144
145
146
147
148
149
150
151
152
153
154
155
156
157
158
159
160
161
162
163
164
165
166
167
168
169
170
171
172
173
174
175
176
177
178
179
180
181
182
183
184
185
186
187
188
189
190
191
192
193
194
195
196
197
198
199
200
201
202
203
204
205
206
207
208
209
210
211
212
213
214
215
216
217
218
219
220
221
222
223
224
225
226
227
228
229
230
231
232
233
234
235
236
237
238
239
240
241
242
243
244
245
246
247
248
249
250
251
252
253
254
255
256
257
258
259
260
261
262
263
264
265
266
267
268
269
270
271
272
273
274
275
276
277
278
279
280
281
282
283
284
285
286
287
288
289
290
291
292
293
294
295
296
297
298
299
300
301
302
303
304
305
306
307
308
309
310
311
312
313
314
315
316
317
318
319
320
321
322
323
324
325
326
327
328
329
330
331
332
333
334
335
336
337
338
339
340
341
342
343
344
345
346
347
348
349
350
351
352
353
354
355
356
357
358
359
360
361
362
363
364
365
366
367
368
369
370
371
372
373
374
375
376
377
378
379
380
381
382
383
384
385
386
387
388
389
390
391
392
393
394
395
396
397
398
399
400
401
402
403
404
405
406
407
408
409
410
411
412
413
414
415
416
417
418
419
420
421
422
423
424
425
426
427
428
429
430
431
432
433
434
435
436
437
438
439
440
441
442
443
444
445
446
447
448
449
450
451
452
453
454
455
456
457
458
459
460
461
462
463
464
465
466
467
468
469
470
471
472
473
474
475
476
477
478
479
480
481
482
483
484
485
486
487
488
489
490
491
492
493
494
495
496
497
498
499
SCALARS type int 1
LOOKUP_TABLE default
0
0
0
0
0
0
0
0
0
0
0
0
0
0
0
0
0
0
0
0
0
0
0
0
0
0
0
0
0
0
0
0
0
0
0
0
0
0
0
0
0
0
0
0
0
0
0
0
0
0
0
0
0
0
0
0
0
0
0
0
0
0
0
0
0
0
0
0
0
0
0
0
0
0
0
0
0
0
0
0
0
0
0
0
0
0
0
0
0
0
0
0
0
0
0
0
0
0
0
0
0
0
0
0
0
0
0
0
0
0
0
0
0
0
0
0
0
0
0
0
0
0
0
0
0
0
0
0
0
0
0
0
0
0
0
0
0
0
0
0
0
0
0
0
0
0
0
0
0
0
0
0
0
0
0
0
0
0
0
0
0
0
0
0
0
0
0
0
0
0
0
0
0
0
0
0
0
0
0
0
0
0
0
0
0
0
0
0
0
0
0
0
0
0
0
0
0
0
0
0
0
0
0
0
0
0
0
0
0
0
0
0
0
0
0
0
0
0
0
0
0
0
0
0
0
0
0
0
0
0
0
0
0
0
0
0
0
0
0
0
0
0
0
0
0
0
0
0
0
0
0
0
0
0
0
0
0
0
0
0
0
0
0
0
0
0
0
0
0
0
0
0
0
0
0
0
0
0
0
0
0
0
0
0
0
0
0
0
0
0
0
0
0
0
0
0
0
0
0
0
0
0
0
0
0
0
0
0
0
0
0
0
0
0
0
0
0
0
0
0
0
0
0
0
0
0
0
0
0
0
0
0
0
0
0
0
0
0
0
0
0
0
0
0
0
0
0
0
0
0
0
0
0
0
0
0
0
0
0
0
0
0
0
0
0
0
0
0
0
0
0
0
0
0
0
0
0
0
0
0
0
0
0
0
0
0
0
0
0
0
0
0
0
0
0
0
0
0
0
0
0
0
0
0
0
0
0
0
0
0
0
0
0
0
0
0
0
0
0
0
0
0
0
0
0
0
0
0
0
0
0
0
0
0
0
0
0
0
0
0
0
0
0
0
0
0
0
0
0
0
0
0
0
0
0
0
0
0
0
0
0
0
0
0
0
0
0
0
0
0
0
0
0
0
0
0
0
0
0
0
0
0
0
0
0
0
0
0
0
0
0
0
0
0
0
0
0
0
0
0
SCALARS damp_viscous double 1
LOOKUP_TABLE default
0
0
0
0
0
0
0
0
0
0
0
0
0
0
0
0
0
0
0
0
0
0
0
0
0
0
0
0
0
0
0
0
0
0
0
0
0
0
0
0
0
0
0
0
0
0
0
0
0
0
0
0
0
0
0
0
0
0
0
0
0
0
0
0
0
0
0
0
0
0
0
0
0
0
0
0
0
0
0
0
0
0
0
0
0
0
0
0
0
0
0
0
0
0
0
0
0
0
0
0
0
0
0
0
0
0
0
0
0
0
0
0
0
0
0
0
0
0
0
0
0
0
0
0
0
0
0
0
0
0
0
0
0
0
0
0
0
0
0
0
0
0
0
0
0
0
0
0
0
0
0
0
0
0
0
0
0
0
0
0
0
0
0
0
0
0
0
0
0
0
0
0
0
0
0
0
0
0
0
0
0
0
0
0
0
0
0
0
0
0
0
0
0
0
0
0
0
0
0
0
0
0
0
0
0
0
0
0
0
0
0
0
0
0
0
0
0
0
0
0
0
0
0
0
0
0
0
0
0
0
0
0
0
0
0
0
0
0
0
0
0
0
0
0
0
0
0
0
0
0
0
0
0
0
0
0
0
0
0
0
0
0
0
0
0
0
0
0
0
0
0
0
0
0
0
0
0
0
0
0
0
0
0
0
0
0
0
0
0
0
0
0
0
0
0
0
0
0
0
0
0
0
0
0
0
0
0
0
0
0
0
0
0
0
0
0
0
0
0
0
0
0
0
0
0
0
0
0
0
0
0
0
0
0
0
0
0
0
0
0
0
0
0
0
0
0
0
0
0
0
0
0
0
0
0
0
0
0
0
0
0
0
0
0
0
0
0
0
0
0
0
0
0
0
0
0
0
0
0
0
0
0
0
0
0
0
0
0
0
0
0
0
0
0
0
0
0
0
0
0
0
0
0
0
0
0
0
0
0
0
0
0
0
0
0
0
0
0
0
0
0
0
0
0
0
0
0
0
0
0
0
0
0
0
0
0
0
0
0
0
0
0
0
0
0
0
0
0
0
0
0
0
0
0
0
0
0
0
0
0
0
0
0
0
0
0
0
0
0
0
0
0
0
0
0
0
0
0
0
0
0
0
0
0
0
0
0
0
0
0
0
0
0
0
0
0
0
0
0
0
SCALARS damp_numerical double 1
LOOKUP_TABLE default
0.5
0.5
0.5
0.5
0.5
0.5
0.5
0.5
0.5
0.5
0.5
0.5
0.5
0.5
0.5
0.5
0.5
0.5
0.5
0.5
0.5
0.5
0.5
0.5
0.5
0.5
0.5
0.5
0.5
0.5
0.5
0.5
0.5
0.5
0.5
0.5
0.5
0.5
0.5
0.5
0.5
0.5
0.5
0.5
0.5
0.5
0.5
0.5
0.5
0.5
0.5
0.5
0.5
0.5
0.5
0.5
0.5
0.5
0.5
0.5
0.5
0.5
0.5
0.5
0.5
0.5
0.5
0.5
0.5
0.5
0.5
0.5
0.5
0.5
0.5
0.5
0.5
0.5
0.5
0.5
0.5
0.5
0.5
0.5
0.5
0.5
0.5
0.5
0.5
0.5
0.5
0.5
0.5
0.5
0.5
0.5
0.5
0.5
0.5
0.5
0.5
0.5
0.5
0.5
0.5
0.5
0.5
0.5
0.5
0.5
0.5
0.5
0.5
0.5
0.5
0.5
0.5
0.5
0.5
0.5
0.5
0.5
0.5
0.5
0.5
0.5
0.5
0.5
0.5
0.5
0.5
0.5
0.5
0.5
0.5
0.5
0.5
0.5
0.5
0.5
0.5
0.5
0.5
0.5
0.5
0.5
0.5
0.5
0.5
0.5
0.5
0.5
0.5
0.5
0.5
0.5
0.5
0.5
0.5
0.5
0.5
0.5
0.5
0.5
0.5
0.5
0.5
0.5
0.5
0.5
0.5
0.5
0.5
0.5
0.5
0.5
0.5
0.5
0.5
0.5
0.5
0.5
0.5
0.5
0.5
0.5
0.5
0.5
0.5
0.5
0.5
0.5
0.5
0.5
0.5
0.5
0.5
0.5
0.5
0.5
0.5
0.5
0.5
0.5
0.5
0.5
0.5
0.5
0.5
0.5
0.5
0.5
0.5
0.5
0.5
0.5
0.5
0.5
0.5
0.5
0.5
0.5
0.5
0.5
0.5
0.5
0.5
0.5
0.5
0.5
0.5
0.5
0.5
0.5
0.5
0.5
0.5
0.5
0.5
0.5
0.5
0.5
0.5
0.5
0.5
0.5
0.5
0.5
0.5
0.5
0.5
0.5
0.5
0.5
0.5
0.5
0.5
0.5
0.5
0.5
0.5
0.5
0.5
0.5
0.5
0.5
0.5
0.5
0.5
0.5
0.5
0.5
0.5
0.5
0.5
0.5
0.5
0.5
0.5
0.5
0.5
0.5
0.5
0.5
0.5
0.5
0.5
0.5
0.5
0.5
0.5
0.5
0.5
0.5
0.5
0.5
0.5
0.5
0.5
0.5
0.5
0.5
0.5
0.5
0.5
0.5
0.5
0.5
0.5
0.5
0.5
0.5
0.5
0.5
0.5
0.5
0.5
0.5
0.5
0.5
0.5
0.5
0.5
0.5
0.5
0.5
0.5
0.5
0.5
0.5
0.5
0.5
0.5
0.5
0.5
0.5
0.5
0.5
0.5
0.5
0.5
0.5
0.5
0.5
0.5
0.5
0.5
0.5
0.5
0.5
0.5
0.5
0.5
0.5
0.5
0.5
0.5
0.5
0.5
0.5
0.5
0.5
0.5
0.5
0.5
0.5
0.5
0.5
0.5
0.5
0.5
0.5
0.5
0.5
0.5
0.5
0.5
0.5
0.5
0.5
0.5
0.5
0.5
0.5
0.5
0.5
0.5
0.5
0.5
0.5
0.5
0.5
0.5
0.5
0.5
0.5
0.5
0.5
0.5
0.5
0.5
0.5
0.5
0.5
0.5
0.5
0.5
0.5
0.5
0.5
0.5
0.5
0.5
0.5
0.5
0.5
0.5
0.5
0.5
0.5
0.5
0.5
0.5
0.5
0.5
0.5
0.5
0.5
0.5
0.5
0.5
0.5
0.5
0.5
0.5
0.5
0.5
0.5
0.5
0.5
0.5
0.5
0.5
0.5
0.5
0.5
0.5
0.5
0.5
0.5
0.5
0.5
0.5
0.5
0.5
0.5
0.5
0.5
0.5
0.5
0.5
0.5
0.5
0.5
0.5
0.5
0.5
0.5
0.5
0.5
0.5
0.5
0.5
0.5
0.5
0.5
0.5
0.5
0.5
0.5
0.5
0.5
0.5
0.5
0.5
0.5
0.5
0.5
0.5
0.5
0.5
0.5
0.5
0.5
0.5
0.5
0.5
0.5
0.5
0.5
SCALARS quat double 4
LOOKUP_TABLE default
0.962376 0.0894034 -0.0583398 0.249873 
0.789828 0.126429 0.600117 0.00683925 
0.988494 0.0960514 -0.0265199 -0.113798 
-0.366121 -0.503126 -0.535818 -0.570717 
0.100639 0.714497 -0.408736 0.558839 
0.807069 -0.287629 -0.200418 0.475123 
0.0482082 -0.251639 -0.371429 0.89241 
0.891376 0.0588531 0.3533 0.277784 
-0.104152 0.417067 0.902666 -0.0200477 
0.0445642 0.0850035 0.0203065 0.995176 
0.93301 -0.13772 -0.0795105 0.322805 
0.103191 -0.935289 -0.137292 -0.309414 
0.0878256 0.412545 -0.0664292 0.904257 
0.609911 0.700333 0.357331 -0.0992804 
0.32469 0.824164 -0.213191 0.412165 
0.995227 0.0824196 -0.0488277 0.0186082 
0.641294 0.0552236 -0.0380472 0.764359 
0.990726 0.0506063 -0.0210896 0.12432 
0.975859 0.110896 -0.0920287 0.164112 
-0.758831 0.204016 0.612136 0.0885556 
0.831801 0.14521 0.506412 -0.174838 
-0.27947 0.854175 -0.286576 0.331897 
0.789881 -0.291288 -0.462061 -0.278819 
0.477023 0.733926 -0.45575 -0.161537 
0.98472 0.0907485 -0.0951911 0.114153 
0.927679 0.154487 -0.17439 0.291776 
-0.639246 0.664064 -0.345238 0.17662 
0.969823 0.145183 -0.175647 -0.0866749 
0.843716 -0.250593 -0.420914 0.219496 
-0.15876 0.386373 -0.329089 0.846883 
0.718153 0.345544 0.541435 0.267776 
0.0896914 -0.721999 -0.350312 -0.589876 
0.225309 -0.0414239 -0.926022 0.300005 
0.138538 0.120852 0.0779177 0.979863 
0.537042 0.754453 0.16305 -0.340296 
0.412195 -0.147719 0.00591264 0.899021 
-0.294529 0.517384 -0.476889 0.64664 
0.26564 0.305203 0.283108 0.869561 
0.744085 -0.621114 -0.223982 0.101919 
0.59175 0.616651 -0.124084 -0.50416 
0.947205 0.146338 -0.174119 0.225989 
0.689732 0.192712 -0.108491 0.689465 
0.977346 -0.206131 -0.0461981 -0.0130578 
0.0126748 0.828151 0.534211 -0.169185 
0.759799 -0.54042 -0.300991 -0.200141 
0.277154 0.245792 -0.670117 0.643207 
0.550804 -0.16216 0.155862 -0.803758 
-0.948231 0.132261 -0.175162 0.229527 
0.370341 0.758841 -0.422303 0.329649 
-0.85638 0.490398 0.0862304 -0.136702 
0.926116 0.296106 -0.198023 -0.124164 
-0.0910012 0.265108 0.891019 -0.357101 
0.79265 0.112036 0.569754 -0.185835 
-0.644135 0.432777 -0.630611 0.011123 
-0.469283 0.520432 0.443664 -0.558647 
-0.598684 0.535557 0.466631 -0.370152 
0.0485203 0.214509 0.973147 -0.0679483 
0.0077536 -0.0525646 -0.880859 -0.470388 
-0.197238 0.142266 0.732808 -0.635492 
0.341087 -0.915055 -0.213404 0.0281632 
-0.43479 0.246938 0.646668 -0.576021 
-0.881086 -0.0954487 0.0326678 0.462072 
-0.313508 -0.708572 0.135412 0.617496 
0.163758 0.220099 0.950231 0.147653 
-0.0996831 0.0290027 0.991177 -0.0823979 
0.910156 0.250379 -0.298203 -0.141426 
-0.117392 -0.954875 -0.193466 0.192362 
0.956378 -0.174296 -0.146222 0.183253 
0.892784 0.0725947 0.40288 -0.188029 
-0.945444 -0.0476627 -0.0706758 -0.314433 
0.651057 -0.530864 -0.321176 0.437212 
-0.594148 -0.711798 -0.358613 -0.1083 
0.317371 0.380201 0.0320473 -0.868157 
-0.618328 0.719717 -0.270238 -0.163243 
0.943938 -0.236899 0.0215598 -0.228898 
0.958783 0.101667 -0.0923958 -0.24872 
0.589198 -0.0179328 -0.650595 0.478801 
0.883737 -0.306106 0.347664 -0.066615 
-0.649993 -0.236821 -0.113243 0.713162 
-0.588646 0.23361 -0.0647505 -0.771187 
0.907306 0.222929 0.0453748 -0.35361 
-0.31531 0.883518 -0.0026311 0.346364 
0.801607 -0.204035 0.560713 -0.0373771 
-0.237259 0.835183 -0.279349 0.41005 
0.95154 -0.258601 0.115573 -0.119751 
0.759955 -0.502228 -0.375859 0.170189 
-0.104539 -0.390702 -0.0137878 -0.914458 
0.806495 0.36939 0.256413 -0.383887 
0.326844 0.926289 0.064822 -0.175955 
-0.219449 0.570295 -0.68338 0.399497 
0.836398 -0.273208 0.410829 -0.23878 
-0.788167 0.354882 -0.490359 0.111358 
0.874315 -0.0508953 -0.413802 0.248497 
0.81517 -0.425438 0.392529 0.0205113 
0.787734 0.044772 0.343366 -0.50948 
0.246184 -0.533799 -0.478316 -0.652431 
0.21116 -0.809142 0.507039 0.208835 
0.0995848 -0.124053 -0.809003 0.565869 
-0.584399 0.606416 0.273799 -0.464513 
0.984555 -0.116783 -0.0155272 -0.129506 
0.844459 -0.103546 -0.0956503 -0.516738 
0.374162 0.4982 0.734556 0.26875 
-0.0838392 0.431482 -0.891916 0.106209 
-0.582027 -0.537478 -0.609466 0.0302112 
-0.202172 -0.0704579 -0.542602 0.812247 
0.947585 -0.120469 0.237898 0.175996 
-0.806438 0.407615 0.249384 -0.348304 
0.307171 0.744776 0.567781 0.169054 
0.831377 0.439109 -0.142602 -0.309289 
0.00193673 0.225257 -0.971481 0.0740245 
0.24535 -0.562392 -0.329701 0.717507 
-0.400196 -0.238682 0.691029 0.552587 
-0.081253 -0.321329 0.206864 -0.920518 
0.83721 -0.255679 0.436859 0.207033 
-0.256423 0.0510866 0.0586753 0.963429 
0.904076 -0.3643 0.215184 -0.0602264 
-0.0461196 -0.800474 0.592468 0.0780731 
0.418017 -0.0778891 -0.396701 0.813525 
0.877098 0.0777427 0.106477 0.461864 
0.208673 0.166319 -0.816439 0.512075 
-0.0259994 0.183117 0.390656 -0.901765 
-0.107788 -0.3154 -0.754852 0.564892 
0.323844 -0.462985 -0.414173 -0.713604 
-0.910344 -0.207471 -0.284215 0.217834 
0.785981 -0.57136 0.0227309 0.235083 
0.750663 0.333641 -0.545611 -0.16582 
0.457887 0.610593 0.552179 -0.335579 
0.533042 0.257781 0.197012 -0.78141 
-0.400397 0.115249 0.903467 -0.100736 
0.464177 -0.438876 0.691532 0.337211 
-0.0321666 0.500088 0.718429 -0.482428 
-0.995964 -0.0528393 -0.0574048 0.0443615 
-0.108227 -0.613979 -0.775012 -0.103312 
0.224618 0.185576 -0.956613 0.000385932 
0.122546 -0.919193 0.190355 0.32223 
0.118334 -0.0585659 0.821151 0.555228 
0.252877 0.739918 0.257864 0.567521 
-0.699138 -0.701154 0.055695 -0.1284 
0.291723 0.924026 -0.166742 -0.182406 
-0.0944834 0.804695 -0.586112 0.00336151 
-0.38088 0.176017 -0.862028 0.284353 
0.40363 -0.35675 0.190504 0.820683 
-0.0861647 0.509406 -0.166543 0.839848 
0.935961 -0.282535 -0.179441 0.109321 
0.0113232 -0.509212 -0.780382 -0.362737 
-0.411593 -0.837123 0.215616 0.288661 
0.664678 -0.553568 0.427063 -0.263407 