# vtk DataFile Version 2.0
Generated by NetDEM
ASCII 
DATASET POLYDATA
POINTS 500 double
-0.418844 -0.408269 -0.46399 
-0.449498 -0.194288 -0.450021 
-0.408047 -0.0097284 -0.462675 
-0.45002 0.109995 -0.450025 
-0.43861 0.348967 -0.450042 
-0.270776 -0.429854 -0.459158 
-0.304958 -0.218847 -0.450055 
-0.192185 -0.0103857 -0.450062 
-0.172739 0.173359 -0.463914 
-0.25435 0.366339 -0.463411 
-0.0556122 -0.397306 -0.460959 
-0.145003 -0.134732 -0.450028 
-0.0550345 -0.091051 -0.450058 
0.0375757 0.179746 -0.452622 
-0.030065 0.318859 -0.442441 
0.193118 -0.401447 -0.463053 
0.168922 -0.210337 -0.463191 
0.173142 -0.005772 -0.462552 
0.161216 0.207826 -0.465051 
0.297981 0.402824 -0.418841 
0.450129 -0.409348 -0.450086 
0.433151 -0.300646 -0.450007 
0.337654 -0.0134187 -0.450007 
0.377959 0.0894719 -0.450106 
0.3721 0.439404 -0.465061 
-0.430643 -0.410898 -0.393892 
-0.450003 -0.270872 -0.385742 
-0.408367 -0.0177323 -0.386631 
-0.446835 0.175671 -0.374681 
-0.450023 0.449464 -0.450048 
-0.336203 -0.406827 -0.407307 
-0.237994 -0.152052 -0.417614 
-0.15612 -0.100114 -0.208374 
-0.304631 0.164391 -0.465049 
-0.149662 0.403479 -0.450347 
-0.0869423 -0.39097 -0.396115 
0.311169 -0.241737 -0.126773 
-0.0372792 -0.0149732 -0.305875 
0.0280124 0.259716 -0.450355 
0.121437 0.301818 -0.429302 
0.201832 -0.414353 -0.390893 
0.166384 -0.206723 -0.389837 
0.175276 0.0157446 -0.385677 
0.197197 0.112806 -0.455768 
0.284858 0.369682 -0.325424 
0.383641 -0.450003 -0.387374 
0.435909 -0.356479 -0.366796 
0.275809 -0.211122 -0.450012 
0.449923 0.140767 -0.40326 
0.424972 0.34078 -0.456368 
-0.435599 -0.441065 -0.326028 
-0.320462 -0.208189 -0.351882 
-0.312372 -0.0207281 -0.367679 
-0.289604 0.269999 -0.450012 
-0.450015 0.27522 -0.383518 
-0.181079 -0.374467 -0.451498 
0.183936 -0.3365 -0.299653 
-0.238663 -0.057571 -0.171179 
-0.175589 0.0783953 -0.450122 
-0.350171 0.331751 -0.335961 
0.0435645 -0.440425 -0.449583 
0.20724 -0.283869 -0.135647 
0.205766 0.0628352 -0.203964 
-0.0395815 0.221571 -0.391745 
0.256163 0.331192 -0.463702 
0.197412 -0.435416 -0.320212 
0.0520392 -0.0961674 -0.450521 
0.16176 0.0603025 -0.331085 
0.272784 0.0654758 -0.443108 
0.113137 0.139201 -0.397647 
0.304424 -0.446439 -0.450007 
0.378022 -0.216271 -0.450155 
0.379437 -0.109646 -0.450009 
0.450019 0.232995 -0.364744 
0.437853 0.256515 -0.459893 
-0.433844 -0.452843 -0.243666 
-0.175703 -0.164751 -0.340447 
-0.23955 -0.00423782 -0.352914 
-0.270595 0.090679 -0.404046 
-0.355548 0.142832 -0.346496 
-0.159985 -0.448417 -0.39386 
-0.126864 -0.0561862 -0.389817 
-0.239431 0.0484329 -0.223594 
-0.0550457 0.128067 -0.444283 
-0.355789 0.38006 -0.40811 
0.0926794 -0.452294 -0.355352 
0.449354 -0.332612 -0.0738137 
-0.187715 -0.239123 -0.45001 
0.0177811 0.0475356 -0.450209 
0.0670738 0.398007 -0.409889 
0.261115 -0.44617 -0.244291 
0.154942 -0.319007 -0.399356 
0.122561 0.0667223 -0.268877 
0.26414 0.17481 -0.443449 
0.144746 0.450009 -0.450025 
0.350016 -0.310174 -0.346517 
0.449954 -0.106206 -0.379194 
0.386378 0.160926 -0.328589 
0.330847 0.3086 -0.412268 
0.436027 0.371635 -0.377095 
-0.387782 -0.43969 -0.169473 
-0.367512 -0.361623 -0.118452 
-0.29425 -0.0402073 -0.273905 
-0.367708 0.0681049 -0.411789 
-0.44808 0.426218 -0.352843 
-0.267624 -0.438304 -0.363455 
-0.0623949 -0.154468 -0.373053 
-0.248815 0.0397532 -0.124425 
-0.00710254 -0.0234389 -0.395459 
-0.422865 0.242355 -0.464065 
0.0824298 -0.343134 -0.440732 
0.355675 -0.211338 -0.0418391 
0.0321433 -0.119071 -0.350482 
0.0294175 0.042718 -0.354962 
-0.00296774 0.436911 -0.464349 
0.301481 -0.38719 -0.212998 
0.259968 -0.314491 -0.424886 
0.0399462 0.0692714 -0.259372 
0.2449 0.239714 -0.380216 
0.348927 0.450021 -0.269806 
0.329745 -0.406634 -0.315164 
0.450222 -0.209724 -0.381509 
0.45 -0.03115 -0.450007 
0.338705 0.209456 -0.40186 
0.397818 0.453054 -0.373744 
-0.462094 -0.452452 -0.125251 
-0.320223 -0.139419 -0.279291 
-0.451215 -0.0308352 -0.318743 
-0.252566 0.189587 -0.394024 
-0.307398 0.448639 -0.357822 
-0.162609 -0.374926 -0.337208 
-0.0849455 -0.222822 -0.450007 
-0.19411 -0.160935 -0.138684 
-0.134864 0.147922 -0.397144 
-0.228875 0.331973 -0.394082 
-0.0914569 -0.310808 -0.451261 
0.288958 -0.318554 -0.0624095 
0.450075 0.0529515 -0.159743 
0.046639 0.120338 -0.330063 
-0.114347 0.312717 -0.405104 
0.167485 -0.430064 -0.230528 
0.238371 -0.140911 -0.391726 
0.110935 -0.0235142 -0.218135 
0.196113 0.306705 -0.338959 
0.201818 0.38504 -0.396264 
0.450019 -0.43967 -0.313185 
0.33416 -0.174386 -0.370181 
0.249704 -0.0627623 -0.45004 
0.448569 0.0516006 -0.358125 
0.440758 0.406273 -0.298888 
-0.439251 -0.457346 -0.00964035 
-0.228289 -0.17102 -0.255629 
-0.423466 -0.113136 -0.405584 
-0.207053 0.272198 -0.331642 
-0.335954 0.238683 -0.367131 
-0.138216 -0.288723 -0.36954 
0.129974 -0.45001 -0.090853 
-0.305769 0.36284 -0.174291 
-0.106006 0.275783 -0.325392 
-0.223301 0.453055 -0.428783 
-0.0012941 -0.340206 -0.356277 
0.11904 -0.237944 -0.146271 
-0.173065 -0.0703046 -0.302298 
0.0196585 0.199442 -0.30028 
0.00875169 0.294665 -0.347346 
0.0772259 -0.413109 -0.272807 
0.135244 -0.0964953 -0.3975 
0.257331 -0.117845 -0.262882 
0.231271 0.183817 -0.323954 
0.140057 0.448754 -0.350161 
0.388116 -0.22741 -0.305297 
0.345321 -0.0720931 -0.363836 
0.322345 0.0591542 -0.372554 
0.401321 0.301941 -0.31095 
0.446164 0.377385 -0.211289 
-0.329559 -0.443407 -0.0539691 
-0.447857 -0.0987023 -0.261614 
-0.356253 0.011306 -0.239803 
-0.449986 0.0685731 -0.353007 
-0.419091 0.260369 -0.289627 
-0.267726 -0.308443 -0.446673 
-0.179154 -0.276429 -0.237435 
-0.143483 0.399332 -0.0720399 
-0.126578 0.188938 -0.333515 
-0.139964 0.442189 -0.34888 
0.00648344 -0.43618 -0.355817 
0.0153422 -0.0969329 -0.254449 
0.0157569 -0.224361 -0.450007 
-0.0284415 0.270582 -0.245198 
-0.00613761 0.411744 -0.369472 
0.0756259 -0.426325 -0.17092 
0.0971484 -0.0413569 -0.33028 
0.288972 -0.159133 -0.185256 
0.203659 0.136993 -0.265911 
0.249206 0.450005 -0.277723 
0.449896 -0.309139 -0.279515 
0.450122 -0.150461 -0.28958 
0.365129 0.0403607 -0.284404 
0.317138 0.248036 -0.308437 
0.382232 0.427025 -0.193668 
-0.244335 -0.446085 -0.134229 
-0.442953 0.229585 -0.197558 
-0.293609 0.191914 -0.182105 
-0.190625 0.0763127 -0.342121 
-0.377302 0.450012 -0.286358 
-0.225627 -0.349175 -0.240118 
-0.0438601 -0.262207 -0.303415 
0.0152208 -0.243543 -0.224932 
-0.157846 0.116189 -0.251944 
-0.167658 0.351489 -0.327337 
-0.043882 -0.386807 -0.289751 
-0.186033 -0.0957289 0.196524 
-0.0275874 0.204953 -0.164635 
-0.0554289 0.118676 -0.308664 
0.10444 0.359381 -0.326813 
0.274052 -0.428231 -0.128464 
0.218435 -0.196901 -0.309394 
0.293866 -0.106341 -0.116553 
0.151401 0.228307 -0.287706 
0.208871 0.3459 -0.248382 
0.411033 -0.384267 -0.225988 
0.446129 -0.226248 -0.22286 
0.434729 -0.0350352 -0.31053 
0.304252 0.11989 -0.289127 
0.406623 0.404502 -0.120513 
-0.250908 -0.33226 -0.148149 
-0.416667 -0.334977 -0.316621 
-0.429719 0.330006 -0.121949 
-0.340729 0.322907 -0.0555618 
-0.44902 0.427463 -0.0043445 
-0.140756 -0.416622 -0.249534 
-0.0532504 0.135958 -0.0601942 
-0.25973 -0.176968 -0.0192033 
-0.183905 0.176362 -0.181313 
-0.159368 0.337648 -0.21907 
-0.0607181 -0.384973 -0.203146 
-0.137088 -0.141628 -0.00505398 
-0.112339 -0.026049 -0.157416 
-0.00274911 0.110975 -0.193015 
0.0250706 0.446483 -0.276557 
0.296322 -0.332695 -0.16192 
0.246983 -0.295551 -0.34204 
0.352009 -0.0509006 -0.0665998 
0.155163 0.272081 -0.21536 
0.207803 0.406636 -0.131072 
0.359531 -0.450375 -0.166012 
0.449976 -0.199169 -0.0727666 
0.336009 0.130287 0.00126766 
0.45 0.152305 -0.171086 
0.426157 0.388282 -0.039487 
-0.29804 -0.319561 -0.347584 
-0.117729 -0.204174 -0.269152 
-0.324967 -0.0213069 -0.142055 
-0.219191 0.206921 -0.256873 
-0.424278 0.444335 -0.198211 
-0.248807 -0.430183 -0.255255 
0.0984854 -0.284475 -0.304879 
-0.308836 0.256761 -0.123435 
-0.24818 0.302346 -0.203105 
-0.150632 0.442269 -0.237854 
0.0168387 -0.381116 -0.158664 
0.449996 -0.389053 0.00888099 
0.0774087 0.437454 -0.184176 
-0.0739591 0.406891 -0.320124 
-0.0374615 0.447845 -0.214887 
0.355017 -0.395167 -0.0806688 
0.373784 -0.098189 -0.164035 
0.195147 -0.027502 -0.288403 
0.221992 0.199147 -0.195663 
0.0879539 0.238912 -0.366669 
0.352668 -0.299728 -0.247097 
0.353894 -0.148114 -0.254455 
0.450108 0.0841309 -0.254706 
0.448668 0.216442 -0.266057 
0.408331 0.450224 -0.00969939 
-0.336375 -0.3937 0.0241976 
-0.138266 -0.345501 -0.127077 
-0.432711 -0.112089 -0.177549 
-0.450011 0.094816 -0.168806 
-0.346382 0.197104 -0.263005 
-0.144658 -0.442873 -0.157294 
-0.0629639 -0.291477 -0.171183 
-0.229555 0.449939 -0.295068 
-0.28223 0.312122 -0.280201 
-0.214621 0.434736 -0.161076 
0.0407685 -0.406193 -0.07327 
-0.115339 0.450001 0.128611 
0.03102 0.182766 -0.0867157 
-0.0694784 0.308037 -0.189188 
0.00645803 0.369074 -0.175792 
0.266736 -0.424306 -0.0186698 
0.0281181 -0.0905967 -0.00104026 
0.145942 -0.0374283 -0.132514 
0.288555 0.17396 -0.138174 
0.071685 0.252669 -0.148953 
0.40665 -0.282558 -0.14929 
0.45001 -0.1491 -0.159318 
0.331704 -0.0517717 -0.265429 
0.450025 0.276684 -0.186331 
0.301778 0.41441 -0.0756775 
-0.290257 -0.354138 -0.0574395 
-0.417031 0.000938571 -0.178702 
-0.393278 -0.29737 -0.0609337 
-0.432391 0.137475 -0.282709 
-0.450016 0.450008 -0.101767 
-0.158118 -0.427567 -0.0571119 
-0.139295 -0.321602 -0.0294857 
-0.281977 0.0902179 -0.303872 
-0.133997 0.278537 -0.10414 
-0.249991 0.38027 -0.0873175 
-0.0216557 -0.426458 -0.0110215 
-0.406975 -0.173465 -0.315742 
0.0124848 -0.00331207 -0.219424 
-0.0434045 0.291136 -0.0815476 
-0.00933252 0.443678 -0.125502 
0.154667 -0.391003 -0.0107402 
0.45229 0.00323708 0.0194795 
0.0754391 -0.0286557 -0.065215 
0.304155 0.336506 -0.198914 
0.281504 0.449951 -0.182951 
0.372878 -0.449993 -0.00964283 
0.440088 -0.0434752 0.0978796 
0.246867 -0.0574166 -0.350217 
0.34837 0.252784 -0.184831 
0.439583 0.453075 0.0772773 
-0.344696 -0.211019 0.026292 
-0.386874 -0.270836 -0.156666 
-0.419479 0.101694 -0.0872934 
-0.388545 0.313554 -0.201608 
-0.450011 0.367762 -0.27171 
-0.173744 -0.433591 0.0563036 
-0.0572356 -0.150045 -0.210764 
-0.224263 0.290211 -0.0817954 
-0.101362 0.383551 -0.158254 
-0.0751828 0.43948 -0.0396003 
-0.0917468 -0.446301 0.034267 
0.0788647 -0.166529 -0.221022 
-0.0680084 0.0661589 -0.130277 
0.0325477 0.249321 -0.024917 
0.00766587 0.423954 -0.0511773 
0.136082 -0.335394 -0.0808016 
0.177314 -0.189225 -0.224203 
0.127996 0.151208 -0.176855 
0.312836 0.221108 -0.0530674 
0.171975 0.45 -0.21417 
0.449979 -0.415493 -0.129786 
0.322251 -0.267527 0.0338222 
0.41207 -0.0221952 -0.21395 
0.370138 0.166249 -0.229934 
0.419759 0.27329 0.183815 
-0.420879 -0.382182 0.0657786 
-0.450001 -0.216057 -0.236159 
-0.365706 0.218023 -0.0713093 
-0.448121 0.0630732 0.00454204 
-0.450002 0.195042 -0.104001 
-0.227374 -0.37935 0.00655074 
-0.277441 -0.112633 -0.0936708 
-0.321923 -0.111661 -0.183256 
-0.190481 0.357595 0.010564 
-0.131455 0.399549 0.0336524 
0.0423615 -0.186219 -0.118059 
-0.150254 -0.24717 -0.113379 
0.219716 0.136677 -0.0684265 
0.105305 0.316471 -0.025975 
-0.0206389 0.439342 0.0414824 
0.0772519 -0.214785 -0.00830851 
0.455688 -0.0734985 -0.102175 
0.281762 0.0617579 -0.0153035 
0.191103 0.224198 -0.104739 
0.104059 0.336388 0.09093 
0.399044 -0.0779026 0.0133607 
0.448414 -0.26662 0.00139696 
0.36635 0.0109629 -0.124693 
0.4267 0.111961 -0.0825368 
0.327637 0.318791 -0.102577 
-0.427345 -0.178614 -0.124921 
-0.450002 -0.243364 -0.0215233 
-0.395482 -0.0055127 -0.0839224 
-0.45 0.282802 0.0619964 
-0.349477 0.448511 -0.131793 
-0.239517 -0.305703 0.0706414 
-0.274422 -0.275572 -0.0114909 
-0.326197 0.0624265 -0.0393868 
-0.120185 0.218524 -0.0374988 
-0.127219 0.194023 0.0430318 
0.0272121 -0.312442 -0.00533161 
-0.122439 -0.105046 -0.0969544 
0.112792 0.11211 -0.084673 
-0.156552 0.106804 -0.121426 
0.0412242 0.412268 0.121368 
0.0388568 -0.291429 -0.1346 
0.286113 -0.0732724 -0.00260942 
0.268546 0.0234266 -0.0887132 
0.184941 0.280847 -0.0248679 
0.15167 0.324492 -0.143442 
0.327952 -0.340298 0.102286 
0.258178 -0.176835 -0.0614669 
0.416422 0.186835 -0.0170924 
0.410371 0.233917 -0.105105 
0.437412 0.27537 0.0139105 
-0.336163 -0.349153 0.10724 
-0.338841 -0.22533 -0.231636 
-0.447776 -0.0598441 -0.0144656 
-0.45 0.133247 0.076413 
-0.279607 0.365432 0.0111813 
-0.060908 -0.180919 -0.123682 
-0.178076 -0.232834 -0.00468644 
-0.233186 0.00330385 -0.0326364 
-0.287427 0.217104 0.00129016 
-0.204894 0.411366 0.102206 
0.2106 -0.0585476 -0.0901521 
0.00255549 -0.081787 -0.156429 
-0.137506 -0.0335228 0.135105 
-0.0217102 0.242402 0.0545719 
-0.0714075 0.351047 0.0905396 
0.300934 -0.441123 0.0868737 
0.328243 -0.210784 0.118501 
0.178533 0.0398938 -0.119337 
0.263677 0.28904 0.0212211 
0.24061 0.450001 -0.00171921 
0.447717 -0.164896 0.0213032 
0.31602 0.362519 0.00482701 
0.449321 0.0882407 0.011927 
0.431501 0.160863 0.0783162 
0.385674 0.368111 0.0743514 
-0.402641 -0.396936 0.150931 
-0.43857 -0.264441 0.0755565 
-0.19721 -0.0738033 -0.0632493 
-0.444526 0.26914 -0.0370359 
-0.388974 0.353741 0.0267219 
-0.210649 -0.393046 0.108873 
-0.247041 -0.00392873 0.132943 
-0.0418134 -0.0117464 -0.0733311 
-0.284804 0.143256 -0.0786335 
-0.284628 0.399632 0.174382 
0.195113 -0.417176 0.0746434 
0.120132 -0.132434 -0.119361 
0.0332269 0.0518806 -0.113052 
-0.0888736 0.107355 0.0808588 
-0.0414384 0.412626 0.170633 
0.30358 -0.409402 0.181812 
0.205804 -0.115845 0.00593584 
0.0958188 0.193461 0.0225555 
0.270961 0.170843 0.163823 
0.156704 0.417047 -0.0457498 
0.413614 -0.449631 0.0816728 
0.332895 -0.161785 0.0419718 
-0.199625 0.134185 0.0730964 
0.367009 0.207217 0.139082 
0.317258 0.451679 0.0713338 
-0.442 -0.450493 0.186944 
-0.297011 0.0515593 0.0556356 
-0.396169 0.00139689 0.0487693 
-0.420461 0.15853 -0.0157155 
-0.450004 0.417043 0.0951066 
-0.297356 -0.452141 0.0827175 
-0.237919 -0.153149 0.0754226 
-0.173868 0.0329416 0.0422075 
-0.354657 0.142424 0.10912 
-0.431984 0.405562 0.206912 
0.240082 -0.254421 0.131247 
-0.0456363 -0.145515 -0.0464863 
-0.0900295 0.0619786 -0.00389894 
0.022909 0.330274 0.0367343 
0.0123995 0.31663 0.137301 
0.194966 -0.246146 -0.0464258 
0.216335 -0.29796 0.0389528 
0.194893 -0.0144146 -0.0118466 
0.192698 0.170572 0.0201162 
0.0801534 0.425836 0.0179859 
0.421026 -0.363991 0.132754 
0.449731 -0.155008 0.120803 
0.348222 0.00770399 0.0322063 
0.273421 0.165798 0.0745219 
0.450274 0.354091 0.129808 
-0.311872 -0.313466 0.172781 
-0.20215 -0.0605066 0.0637827 
-0.439612 -0.00762498 0.154505 
-0.369811 0.223214 0.0576463 
-0.364567 0.447203 0.13741 
-0.181752 -0.244389 0.0955495 
-0.204176 -0.188155 0.162941 
-0.0865595 -0.0222913 0.0498044 
-0.318112 0.315511 0.0888034 
-0.221985 0.236165 0.0744856 
-0.0471483 -0.113385 0.0539 
-0.0145659 -0.251967 -0.0622898 
0.0152344 0.00290103 0.00747505 
0.236992 -0.154418 0.0897333 
0.0132193 0.448812 0.23133 
0.215629 -0.390443 0.183811 
0.443641 -0.30403 0.20245 
0.310188 0.0620272 0.11234 
0.177188 0.246676 0.0778474 
0.182574 0.365939 0.0365097 
0.397788 -0.407677 0.230324 
0.449398 -0.203656 0.208193 
0.326014 -0.0715066 0.0900968 
0.40091 0.0921099 0.144185 
0.230622 0.424427 0.109983 
VERTICES 500 1000
1 0
1 1
1 2
1 3
1 4
1 5
1 6
1 7
1 8
1 9
1 10
1 11
1 12
1 13
1 14
1 15
1 16
1 17
1 18
1 19
1 20
1 21
1 22
1 23
1 24
1 25
1 26
1 27
1 28
1 29
1 30
1 31
1 32
1 33
1 34
1 35
1 36
1 37
1 38
1 39
1 40
1 41
1 42
1 43
1 44
1 45
1 46
1 47
1 48
1 49
1 50
1 51
1 52
1 53
1 54
1 55
1 56
1 57
1 58
1 59
1 60
1 61
1 62
1 63
1 64
1 65
1 66
1 67
1 68
1 69
1 70
1 71
1 72
1 73
1 74
1 75
1 76
1 77
1 78
1 79
1 80
1 81
1 82
1 83
1 84
1 85
1 86
1 87
1 88
1 89
1 90
1 91
1 92
1 93
1 94
1 95
1 96
1 97
1 98
1 99
1 100
1 101
1 102
1 103
1 104
1 105
1 106
1 107
1 108
1 109
1 110
1 111
1 112
1 113
1 114
1 115
1 116
1 117
1 118
1 119
1 120
1 121
1 122
1 123
1 124
1 125
1 126
1 127
1 128
1 129
1 130
1 131
1 132
1 133
1 134
1 135
1 136
1 137
1 138
1 139
1 140
1 141
1 142
1 143
1 144
1 145
1 146
1 147
1 148
1 149
1 150
1 151
1 152
1 153
1 154
1 155
1 156
1 157
1 158
1 159
1 160
1 161
1 162
1 163
1 164
1 165
1 166
1 167
1 168
1 169
1 170
1 171
1 172
1 173
1 174
1 175
1 176
1 177
1 178
1 179
1 180
1 181
1 182
1 183
1 184
1 185
1 186
1 187
1 188
1 189
1 190
1 191
1 192
1 193
1 194
1 195
1 196
1 197
1 198
1 199
1 200
1 201
1 202
1 203
1 204
1 205
1 206
1 207
1 208
1 209
1 210
1 211
1 212
1 213
1 214
1 215
1 216
1 217
1 218
1 219
1 220
1 221
1 222
1 223
1 224
1 225
1 226
1 227
1 228
1 229
1 230
1 231
1 232
1 233
1 234
1 235
1 236
1 237
1 238
1 239
1 240
1 241
1 242
1 243
1 244
1 245
1 246
1 247
1 248
1 249
1 250
1 251
1 252
1 253
1 254
1 255
1 256
1 257
1 258
1 259
1 260
1 261
1 262
1 263
1 264
1 265
1 266
1 267
1 268
1 269
1 270
1 271
1 272
1 273
1 274
1 275
1 276
1 277
1 278
1 279
1 280
1 281
1 282
1 283
1 284
1 285
1 286
1 287
1 288
1 289
1 290
1 291
1 292
1 293
1 294
1 295
1 296
1 297
1 298
1 299
1 300
1 301
1 302
1 303
1 304
1 305
1 306
1 307
1 308
1 309
1 310
1 311
1 312
1 313
1 314
1 315
1 316
1 317
1 318
1 319
1 320
1 321
1 322
1 323
1 324
1 325
1 326
1 327
1 328
1 329
1 330
1 331
1 332
1 333
1 334
1 335
1 336
1 337
1 338
1 339
1 340
1 341
1 342
1 343
1 344
1 345
1 346
1 347
1 348
1 349
1 350
1 351
1 352
1 353
1 354
1 355
1 356
1 357
1 358
1 359
1 360
1 361
1 362
1 363
1 364
1 365
1 366
1 367
1 368
1 369
1 370
1 371
1 372
1 373
1 374
1 375
1 376
1 377
1 378
1 379
1 380
1 381
1 382
1 383
1 384
1 385
1 386
1 387
1 388
1 389
1 390
1 391
1 392
1 393
1 394
1 395
1 396
1 397
1 398
1 399
1 400
1 401
1 402
1 403
1 404
1 405
1 406
1 407
1 408
1 409
1 410
1 411
1 412
1 413
1 414
1 415
1 416
1 417
1 418
1 419
1 420
1 421
1 422
1 423
1 424
1 425
1 426
1 427
1 428
1 429
1 430
1 431
1 432
1 433
1 434
1 435
1 436
1 437
1 438
1 439
1 440
1 441
1 442
1 443
1 444
1 445
1 446
1 447
1 448
1 449
1 450
1 451
1 452
1 453
1 454
1 455
1 456
1 457
1 458
1 459
1 460
1 461
1 462
1 463
1 464
1 465
1 466
1 467
1 468
1 469
1 470
1 471
1 472
1 473
1 474
1 475
1 476
1 477
1 478
1 479
1 480
1 481
1 482
1 483
1 484
1 485
1 486
1 487
1 488
1 489
1 490
1 491
1 492
1 493
1 494
1 495
1 496
1 497
1 498
1 499
POINT_DATA 500
SCALARS id int 1
LOOKUP_TABLE default
0
1
2
3
4
5
6
7
8
9
10
11
12
13
14
15
16
17
18
19
20
21
22
23
24
25
26
27
28
29
30
31
32
33
34
35
36
37
38
39
40
41
42
43
44
45
46
47
48
49
50
51
52
53
54
55
56
57
58
59
60
61
62
63
64
65
66
67
68
69
70
71
72
73
74
75
76
77
78
79
80
81
82
83
84
85
86
87
88
89
90
91
92
93
94
95
96
97
98
99
100
101
102
103
104
105
106
107
108
109
110
111
112
113
114
115
116
117
118
119
120
121
122
123
124
125
126
127
128
129
130
131
132
133
134
135
136
137
138
139
140
141
142
143
144
145
146
147
148
149
150
151
152
153
154
155
156
157
158
159
160
161
162
163
164
165
166
167
168
169
170
171
172
173
174
175
176
177
178
179
180
181
182
183
184
185
186
187
188
189
190
191
192
193
194
195
196
197
198
199
200
201
202
203
204
205
206
207
208
209
210
211
212
213
214
215
216
217
218
219
220
221
222
223
224
225
226
227
228
229
230
231
232
233
234
235
236
237
238
239
240
241
242
243
244
245
246
247
248
249
250
251
252
253
254
255
256
257
258
259
260
261
262
263
264
265
266
267
268
269
270
271
272
273
274
275
276
277
278
279
280
281
282
283
284
285
286
287
288
289
290
291
292
293
294
295
296
297
298
299
300
301
302
303
304
305
306
307
308
309
310
311
312
313
314
315
316
317
318
319
320
321
322
323
324
325
326
327
328
329
330
331
332
333
334
335
336
337
338
339
340
341
342
343
344
345
346
347
348
349
350
351
352
353
354
355
356
357
358
359
360
361
362
363
364
365
366
367
368
369
370
371
372
373
374
375
376
377
378
379
380
381
382
383
384
385
386
387
388
389
390
391
392
393
394
395
396
397
398
399
400
401
402
403
404
405
406
407
408
409
410
411
412
413
414
415
416
417
418
419
420
421
422
423
424
425
426
427
428
429
430
431
432
433
434
435
436
437
438
439
440
441
442
443
444
445
446
447
448
449
450
451
452
453
454
455
456
457
458
459
460
461
462
463
464
465
466
467
468
469
470
471
472
473
474
475
476
477
478
479
480
481
482
483
484
485
486
487
488
489
490
491
492
493
494
495
496
497
498
499
SCALARS type int 1
LOOKUP_TABLE default
0
0
0
0
0
0
0
0
0
0
0
0
0
0
0
0
0
0
0
0
0
0
0
0
0
0
0
0
0
0
0
0
0
0
0
0
0
0
0
0
0
0
0
0
0
0
0
0
0
0
0
0
0
0
0
0
0
0
0
0
0
0
0
0
0
0
0
0
0
0
0
0
0
0
0
0
0
0
0
0
0
0
0
0
0
0
0
0
0
0
0
0
0
0
0
0
0
0
0
0
0
0
0
0
0
0
0
0
0
0
0
0
0
0
0
0
0
0
0
0
0
0
0
0
0
0
0
0
0
0
0
0
0
0
0
0
0
0
0
0
0
0
0
0
0
0
0
0
0
0
0
0
0
0
0
0
0
0
0
0
0
0
0
0
0
0
0
0
0
0
0
0
0
0
0
0
0
0
0
0
0
0
0
0
0
0
0
0
0
0
0
0
0
0
0
0
0
0
0
0
0
0
0
0
0
0
0
0
0
0
0
0
0
0
0
0
0
0
0
0
0
0
0
0
0
0
0
0
0
0
0
0
0
0
0
0
0
0
0
0
0
0
0
0
0
0
0
0
0
0
0
0
0
0
0
0
0
0
0
0
0
0
0
0
0
0
0
0
0
0
0
0
0
0
0
0
0
0
0
0
0
0
0
0
0
0
0
0
0
0
0
0
0
0
0
0
0
0
0
0
0
0
0
0
0
0
0
0
0
0
0
0
0
0
0
0
0
0
0
0
0
0
0
0
0
0
0
0
0
0
0
0
0
0
0
0
0
0
0
0
0
0
0
0
0
0
0
0
0
0
0
0
0
0
0
0
0
0
0
0
0
0
0
0
0
0
0
0
0
0
0
0
0
0
0
0
0
0
0
0
0
0
0
0
0
0
0
0
0
0
0
0
0
0
0
0
0
0
0
0
0
0
0
0
0
0
0
0
0
0
0
0
0
0
0
0
0
0
0
0
0
0
0
0
0
0
0
0
0
0
0
0
0
0
0
0
0
0
0
0
0
0
0
0
0
0
0
0
0
0
0
0
0
0
0
0
0
0
0
0
0
0
0
0
0
0
0
0
0
0
0
0
0
0
0
0
0
0
0
0
0
0
0
0
0
0
0
0
0
0
0
0
0
0
0
0
0
0
0
0
SCALARS damp_viscous double 1
LOOKUP_TABLE default
0
0
0
0
0
0
0
0
0
0
0
0
0
0
0
0
0
0
0
0
0
0
0
0
0
0
0
0
0
0
0
0
0
0
0
0
0
0
0
0
0
0
0
0
0
0
0
0
0
0
0
0
0
0
0
0
0
0
0
0
0
0
0
0
0
0
0
0
0
0
0
0
0
0
0
0
0
0
0
0
0
0
0
0
0
0
0
0
0
0
0
0
0
0
0
0
0
0
0
0
0
0
0
0
0
0
0
0
0
0
0
0
0
0
0
0
0
0
0
0
0
0
0
0
0
0
0
0
0
0
0
0
0
0
0
0
0
0
0
0
0
0
0
0
0
0
0
0
0
0
0
0
0
0
0
0
0
0
0
0
0
0
0
0
0
0
0
0
0
0
0
0
0
0
0
0
0
0
0
0
0
0
0
0
0
0
0
0
0
0
0
0
0
0
0
0
0
0
0
0
0
0
0
0
0
0
0
0
0
0
0
0
0
0
0
0
0
0
0
0
0
0
0
0
0
0
0
0
0
0
0
0
0
0
0
0
0
0
0
0
0
0
0
0
0
0
0
0
0
0
0
0
0
0
0
0
0
0
0
0
0
0
0
0
0
0
0
0
0
0
0
0
0
0
0
0
0
0
0
0
0
0
0
0
0
0
0
0
0
0
0
0
0
0
0
0
0
0
0
0
0
0
0
0
0
0
0
0
0
0
0
0
0
0
0
0
0
0
0
0
0
0
0
0
0
0
0
0
0
0
0
0
0
0
0
0
0
0
0
0
0
0
0
0
0
0
0
0
0
0
0
0
0
0
0
0
0
0
0
0
0
0
0
0
0
0
0
0
0
0
0
0
0
0
0
0
0
0
0
0
0
0
0
0
0
0
0
0
0
0
0
0
0
0
0
0
0
0
0
0
0
0
0
0
0
0
0
0
0
0
0
0
0
0
0
0
0
0
0
0
0
0
0
0
0
0
0
0
0
0
0
0
0
0
0
0
0
0
0
0
0
0
0
0
0
0
0
0
0
0
0
0
0
0
0
0
0
0
0
0
0
0
0
0
0
0
0
0
0
0
0
0
0
0
0
0
0
0
0
0
0
0
0
0
0
0
0
0
0
0
0
0
0
0
0
0
0
0
0
0
SCALARS damp_numerical double 1
LOOKUP_TABLE default
0.5
0.5
0.5
0.5
0.5
0.5
0.5
0.5
0.5
0.5
0.5
0.5
0.5
0.5
0.5
0.5
0.5
0.5
0.5
0.5
0.5
0.5
0.5
0.5
0.5
0.5
0.5
0.5
0.5
0.5
0.5
0.5
0.5
0.5
0.5
0.5
0.5
0.5
0.5
0.5
0.5
0.5
0.5
0.5
0.5
0.5
0.5
0.5
0.5
0.5
0.5
0.5
0.5
0.5
0.5
0.5
0.5
0.5
0.5
0.5
0.5
0.5
0.5
0.5
0.5
0.5
0.5
0.5
0.5
0.5
0.5
0.5
0.5
0.5
0.5
0.5
0.5
0.5
0.5
0.5
0.5
0.5
0.5
0.5
0.5
0.5
0.5
0.5
0.5
0.5
0.5
0.5
0.5
0.5
0.5
0.5
0.5
0.5
0.5
0.5
0.5
0.5
0.5
0.5
0.5
0.5
0.5
0.5
0.5
0.5
0.5
0.5
0.5
0.5
0.5
0.5
0.5
0.5
0.5
0.5
0.5
0.5
0.5
0.5
0.5
0.5
0.5
0.5
0.5
0.5
0.5
0.5
0.5
0.5
0.5
0.5
0.5
0.5
0.5
0.5
0.5
0.5
0.5
0.5
0.5
0.5
0.5
0.5
0.5
0.5
0.5
0.5
0.5
0.5
0.5
0.5
0.5
0.5
0.5
0.5
0.5
0.5
0.5
0.5
0.5
0.5
0.5
0.5
0.5
0.5
0.5
0.5
0.5
0.5
0.5
0.5
0.5
0.5
0.5
0.5
0.5
0.5
0.5
0.5
0.5
0.5
0.5
0.5
0.5
0.5
0.5
0.5
0.5
0.5
0.5
0.5
0.5
0.5
0.5
0.5
0.5
0.5
0.5
0.5
0.5
0.5
0.5
0.5
0.5
0.5
0.5
0.5
0.5
0.5
0.5
0.5
0.5
0.5
0.5
0.5
0.5
0.5
0.5
0.5
0.5
0.5
0.5
0.5
0.5
0.5
0.5
0.5
0.5
0.5
0.5
0.5
0.5
0.5
0.5
0.5
0.5
0.5
0.5
0.5
0.5
0.5
0.5
0.5
0.5
0.5
0.5
0.5
0.5
0.5
0.5
0.5
0.5
0.5
0.5
0.5
0.5
0.5
0.5
0.5
0.5
0.5
0.5
0.5
0.5
0.5
0.5
0.5
0.5
0.5
0.5
0.5
0.5
0.5
0.5
0.5
0.5
0.5
0.5
0.5
0.5
0.5
0.5
0.5
0.5
0.5
0.5
0.5
0.5
0.5
0.5
0.5
0.5
0.5
0.5
0.5
0.5
0.5
0.5
0.5
0.5
0.5
0.5
0.5
0.5
0.5
0.5
0.5
0.5
0.5
0.5
0.5
0.5
0.5
0.5
0.5
0.5
0.5
0.5
0.5
0.5
0.5
0.5
0.5
0.5
0.5
0.5
0.5
0.5
0.5
0.5
0.5
0.5
0.5
0.5
0.5
0.5
0.5
0.5
0.5
0.5
0.5
0.5
0.5
0.5
0.5
0.5
0.5
0.5
0.5
0.5
0.5
0.5
0.5
0.5
0.5
0.5
0.5
0.5
0.5
0.5
0.5
0.5
0.5
0.5
0.5
0.5
0.5
0.5
0.5
0.5
0.5
0.5
0.5
0.5
0.5
0.5
0.5
0.5
0.5
0.5
0.5
0.5
0.5
0.5
0.5
0.5
0.5
0.5
0.5
0.5
0.5
0.5
0.5
0.5
0.5
0.5
0.5
0.5
0.5
0.5
0.5
0.5
0.5
0.5
0.5
0.5
0.5
0.5
0.5
0.5
0.5
0.5
0.5
0.5
0.5
0.5
0.5
0.5
0.5
0.5
0.5
0.5
0.5
0.5
0.5
0.5
0.5
0.5
0.5
0.5
0.5
0.5
0.5
0.5
0.5
0.5
0.5
0.5
0.5
0.5
0.5
0.5
0.5
0.5
0.5
0.5
0.5
0.5
0.5
0.5
0.5
0.5
0.5
0.5
0.5
0.5
0.5
0.5
0.5
0.5
0.5
0.5
0.5
0.5
0.5
0.5
0.5
0.5
0.5
0.5
0.5
0.5
0.5
0.5
0.5
0.5
0.5
0.5
0.5
0.5
0.5
0.5
0.5
0.5
0.5
0.5
0.5
0.5
0.5
0.5
0.5
0.5
0.5
0.5
0.5
SCALARS quat double 4
LOOKUP_TABLE default
0.963131 0.0897841 -0.0527041 0.248071 
0.783996 0.15084 0.602105 0.00813613 
0.989441 0.0909292 -0.0592723 -0.0960502 
-0.371661 -0.473523 -0.557431 -0.571764 
0.0660214 0.70939 -0.365933 0.598748 
0.802683 -0.271636 -0.200533 0.49163 
0.120544 -0.313501 -0.300015 0.892848 
0.880458 0.0445924 0.335786 0.331742 
-0.111 0.427371 0.897165 -0.011262 
0.100528 0.0909272 -0.00975557 0.990723 
0.919609 -0.149116 -0.0946519 0.350891 
0.17516 -0.91368 -0.239017 -0.27817 
0.0879747 0.399998 -0.0394829 0.911429 
0.591738 0.716766 0.355618 -0.0981234 
0.337612 0.814831 -0.178872 0.435975 
0.996053 0.0800993 -0.0381894 -0.00215336 
0.640131 0.0485991 -0.0433899 0.765498 
0.986684 0.0822491 -0.0176648 0.139203 
0.972854 0.112608 -0.0903755 0.180852 
-0.771903 0.153161 0.609248 0.0975925 
0.836899 0.122296 0.509204 -0.159231 
-0.30997 0.849296 -0.289497 0.314336 
0.7866 -0.255134 -0.486287 -0.282297 
0.550522 0.742535 -0.363595 -0.115608 
0.983945 0.105186 -0.09881 0.104996 
0.932561 0.155958 -0.171911 0.276503 
-0.586876 0.719608 -0.307985 0.20709 
0.977644 0.163784 -0.096824 -0.0895075 
0.669017 -0.42817 -0.426769 0.432382 
-0.162467 0.393396 -0.330563 0.842361 
0.736563 0.352451 0.504866 0.279935 
0.408863 -0.655617 -0.152632 -0.616198 
0.121326 -0.0521383 -0.952398 0.274773 
0.179246 0.124654 0.0727337 0.973161 
0.55567 0.729684 0.189542 -0.350522 
0.401362 -0.144212 0.0567311 0.902714 
-0.289056 0.500866 -0.485769 0.655446 
0.234112 0.338409 0.273472 0.869416 
0.725808 -0.63347 -0.258658 0.070821 
0.576562 0.647186 -0.10289 -0.487997 
0.945223 0.147449 -0.164065 0.240613 
0.701666 0.200252 -0.0969576 0.676878 
0.977973 -0.204032 -0.0416257 0.0144041 
0.0120064 0.818938 0.55299 -0.152967 
0.725776 -0.573066 -0.327775 -0.193411 
0.345531 0.274997 -0.684133 0.580472 
0.554697 -0.179604 0.157606 -0.797003 
-0.950972 0.141839 -0.17799 0.209412 
0.43083 0.763659 -0.379516 0.29526 
-0.840712 0.508824 0.102744 -0.154091 
0.927682 0.295737 -0.20505 -0.0995058 
0.322767 -0.111753 0.893157 -0.292579 
0.824326 -0.0869307 0.559295 -0.0108942 
-0.667324 0.423652 -0.611945 -0.0268529 
-0.503257 0.493147 0.485582 -0.517443 
-0.61444 0.468897 0.485851 -0.408103 
0.121597 0.222188 0.962093 -0.101111 
0.0965918 -0.0396283 -0.84002 -0.532415 
-0.187138 0.0356441 0.783277 -0.591764 
0.359872 -0.905918 -0.220393 0.0350943 
-0.447532 0.230212 0.664216 -0.552752 
-0.859269 -0.059482 0.085656 0.500782 
-0.27963 -0.713213 0.131683 0.629122 
0.0960406 0.240857 0.958104 0.121662 
-0.108946 0.0302739 0.992094 -0.054437 
0.918746 0.242209 -0.271141 -0.154027 
-0.128006 -0.954232 -0.17576 0.205337 
0.963532 -0.159186 -0.127775 0.173032 
0.895304 0.00588719 0.407313 -0.180257 
-0.921173 -0.0979225 -0.11772 -0.357761 
0.634849 -0.376045 -0.262001 0.622023 
-0.565086 -0.749364 -0.336704 -0.0759063 
0.3603 0.364644 0.036518 -0.857837 
-0.586836 0.744733 -0.294012 -0.120638 
0.944948 -0.248214 0.0214321 -0.212143 
0.960471 0.116533 -0.119461 -0.222812 
0.540297 -0.0996091 -0.63398 0.544267 
0.881081 -0.258972 0.378933 -0.114189 
-0.567877 -0.206528 -0.124959 0.786923 
-0.546796 0.176759 -0.11274 -0.810593 
0.888011 0.264158 0.014026 -0.376112 
-0.351702 0.877649 0.0275118 0.324471 
0.939598 -0.118683 0.300755 -0.112323 
-0.231178 0.824514 -0.275365 0.436931 
0.976072 -0.193012 0.00576624 -0.0999849 
0.756652 -0.4716 -0.419222 0.171242 
-0.176927 -0.324285 0.106323 -0.923164 
0.777563 0.417776 0.28207 -0.375893 
0.322294 0.92477 0.0732912 -0.188562 
-0.170872 0.557279 -0.653219 0.483267 
0.871219 -0.226279 0.35364 -0.254391 
-0.814707 0.369838 -0.446247 0.0182972 
0.887224 -0.0267946 -0.388705 0.247032 
0.850016 -0.355823 0.387326 0.028998 
0.793589 0.0218665 0.36558 -0.485891 
0.295337 -0.576107 -0.406905 -0.644442 
0.296386 -0.790405 0.478942 0.240894 
0.230713 -0.221565 -0.717505 0.618763 
-0.604997 0.592387 0.151594 -0.509977 
0.982228 -0.109083 -0.01479 -0.152022 
0.842048 -0.0788106 -0.10355 -0.52347 
0.290337 0.531746 0.739891 0.292424 
-0.014337 0.437617 -0.897375 0.0548073 
-0.625708 -0.591464 -0.503186 -0.0739201 
-0.216228 -0.0837366 -0.372373 0.89865 
0.941064 -0.158864 0.254272 0.156544 
-0.737411 0.549846 0.219447 -0.325173 
0.120335 0.734584 0.664814 -0.0626764 
0.819823 0.407949 -0.0948293 -0.390481 
0.0142338 0.213129 -0.974718 0.0655665 
0.282392 -0.590512 -0.28763 0.699156 
-0.422255 -0.301942 0.644813 0.561024 
-0.079178 -0.400496 0.256892 -0.875979 
0.814569 -0.265707 0.481284 0.185048 
-0.235879 0.0654887 0.0915462 0.965242 
0.948077 -0.238211 0.197591 0.0732383 
0.0172753 -0.803373 0.592522 0.0566611 
0.455091 -0.0781027 -0.396255 0.793583 
0.884994 0.0920496 0.0891359 0.447623 
0.245535 0.156899 -0.816485 0.498446 
-0.0226786 0.0871186 0.467503 -0.879396 
-0.133033 -0.265258 -0.722722 0.624191 
0.334754 -0.457081 -0.419151 -0.709457 
-0.932977 -0.222006 -0.183448 0.215904 
0.755022 -0.614308 0.00372606 0.229246 
0.776553 0.294905 -0.534035 -0.157488 
0.417676 0.6363 0.555871 -0.334181 
0.517131 0.286626 0.190017 -0.783782 
-0.465401 0.266865 0.826569 -0.170202 
0.442781 -0.443216 0.705889 0.330492 
-0.0136915 0.494879 0.729937 -0.471274 
-0.993477 -0.0682024 -0.050392 0.0762441 
-0.0678228 -0.586206 -0.807184 -0.0147331 
0.210012 0.20588 -0.949348 0.110664 
0.121963 -0.908506 0.225538 0.329963 
0.126049 -0.0635657 0.819623 0.555239 
0.276391 0.735596 0.223044 0.576852 
-0.680482 -0.724978 0.0599223 -0.0880945 
0.317018 0.910521 -0.177996 -0.196896 
-0.0433224 0.813643 -0.579564 0.0146388 
-0.547739 0.105957 -0.826448 0.0757543 
0.441857 -0.254157 0.308321 0.803184 
-0.0981379 0.500066 -0.110894 0.853232 
0.93493 -0.277644 -0.182149 0.125063 
0.0203282 -0.504826 -0.783728 -0.361259 
-0.446297 -0.825823 0.24025 0.247214 
0.726807 -0.520469 0.352393 -0.276917 
0.271417 -0.569278 0.124719 -0.765964 