# vtk DataFile Version 2.0
Generated by NetDEM
ASCII 
DATASET POLYDATA
POINTS 500 double
-0.418974 -0.408334 -0.464064 
-0.449665 -0.194139 -0.450023 
-0.407237 -0.0106587 -0.46188 
-0.450014 0.109853 -0.450019 
-0.438203 0.349374 -0.450036 
-0.270935 -0.429815 -0.459146 
-0.304671 -0.220203 -0.450057 
-0.191375 -0.0109486 -0.450071 
-0.172659 0.173222 -0.463894 
-0.254651 0.36665 -0.463536 
-0.0557935 -0.396752 -0.461083 
-0.146928 -0.13442 -0.45002 
-0.0554524 -0.0924065 -0.45003 
0.0382456 0.18013 -0.452789 
-0.0297942 0.318654 -0.442555 
0.193237 -0.401536 -0.462896 
0.169602 -0.210036 -0.463271 
0.172643 -0.00505752 -0.462784 
0.161356 0.207453 -0.46507 
0.297914 0.403026 -0.418838 
0.450011 -0.409848 -0.450022 
0.433072 -0.299508 -0.450019 
0.338585 -0.0121069 -0.450009 
0.377228 0.0889837 -0.450021 
0.372135 0.43951 -0.465094 
-0.430912 -0.411068 -0.393959 
-0.450001 -0.271137 -0.386229 
-0.408169 -0.0175652 -0.387391 
-0.445658 0.176044 -0.375167 
-0.45002 0.44889 -0.450038 
-0.336553 -0.406823 -0.407549 
-0.240622 -0.150077 -0.418798 
-0.156613 -0.10049 -0.211352 
-0.304674 0.16452 -0.465025 
-0.150192 0.403853 -0.450949 
-0.0875454 -0.390901 -0.396402 
0.310646 -0.245887 -0.13234 
-0.041609 -0.0162412 -0.309033 
0.0286218 0.259723 -0.450562 
0.122102 0.301882 -0.430068 
0.202381 -0.414189 -0.390743 
0.166826 -0.206177 -0.390221 
0.175338 0.0163743 -0.38604 
0.1973 0.112902 -0.45572 
0.285449 0.369236 -0.325605 
0.382477 -0.450007 -0.388187 
0.435351 -0.355609 -0.367305 
0.275761 -0.211735 -0.450012 
0.450017 0.141125 -0.40549 
0.425298 0.340935 -0.456376 
-0.435752 -0.441024 -0.326022 
-0.320614 -0.209269 -0.351953 
-0.312327 -0.0197107 -0.368629 
-0.28931 0.270484 -0.450019 
-0.450026 0.2756 -0.383633 
-0.180584 -0.373173 -0.451988 
0.183167 -0.336951 -0.300506 
-0.238718 -0.0559259 -0.175575 
-0.174777 0.0779148 -0.450391 
-0.350206 0.330846 -0.336983 
0.0441417 -0.439667 -0.449704 
0.207298 -0.285188 -0.155292 
0.205412 0.0623163 -0.206684 
-0.0399674 0.221642 -0.392986 
0.256308 0.331481 -0.463577 
0.196944 -0.434965 -0.319617 
0.0518931 -0.0964394 -0.450571 
0.161432 0.0610819 -0.331719 
0.271912 0.0650104 -0.442563 
0.11304 0.13849 -0.397501 
0.299425 -0.447039 -0.450007 
0.377668 -0.216252 -0.450084 
0.379264 -0.109781 -0.450035 
0.450022 0.232437 -0.364832 
0.437625 0.256491 -0.459891 
-0.433617 -0.452858 -0.243601 
-0.176368 -0.163235 -0.34333 
-0.238715 -0.0041623 -0.353096 
-0.269655 0.0895612 -0.404633 
-0.354545 0.142995 -0.348543 
-0.160876 -0.448696 -0.39458 
-0.126493 -0.0567674 -0.389373 
-0.239425 0.048156 -0.224856 
-0.0549025 0.128198 -0.444712 
-0.355405 0.380532 -0.407698 
0.0920643 -0.451465 -0.355514 
0.449186 -0.333476 -0.0788331 
-0.18798 -0.239651 -0.450009 
0.0173336 0.0472142 -0.450249 
0.0672661 0.398173 -0.410187 
0.260737 -0.445944 -0.244254 
0.154959 -0.31846 -0.400449 
0.121404 0.0678569 -0.27012 
0.264684 0.174921 -0.443749 
0.144191 0.450005 -0.450019 
0.346541 -0.310416 -0.358608 
0.450011 -0.106149 -0.379482 
0.387534 0.160712 -0.329845 
0.330964 0.308893 -0.412204 
0.436466 0.371989 -0.37738 
-0.387293 -0.43963 -0.169616 
-0.367793 -0.36068 -0.119594 
-0.294662 -0.0399527 -0.275208 
-0.366889 0.0679916 -0.413491 
-0.447535 0.426599 -0.352618 
-0.268533 -0.439013 -0.363247 
-0.0632112 -0.15834 -0.37517 
-0.249174 0.0400384 -0.125688 
-0.00341276 -0.0238783 -0.396863 
-0.423283 0.242551 -0.463974 
0.082771 -0.342587 -0.440749 
0.355201 -0.212155 -0.0486903 
0.0355832 -0.119236 -0.351167 
0.0281576 0.0424125 -0.35506 
-0.0029938 0.436611 -0.464308 
0.302283 -0.385427 -0.216467 
0.259719 -0.315299 -0.42409 
0.0390735 0.0689009 -0.260447 
0.246558 0.240901 -0.380442 
0.348778 0.449902 -0.271006 
0.326886 -0.405418 -0.318041 
0.450039 -0.209458 -0.381487 
0.45 -0.0307332 -0.450007 
0.339866 0.209738 -0.402829 
0.397789 0.453114 -0.373894 
-0.462123 -0.452484 -0.126201 
-0.320448 -0.13924 -0.280588 
-0.451366 -0.0307046 -0.320131 
-0.25273 0.189999 -0.394112 
-0.305818 0.449054 -0.359475 
-0.163756 -0.374509 -0.338284 
-0.0849534 -0.222677 -0.450007 
-0.194379 -0.161656 -0.141855 
-0.134518 0.148184 -0.397189 
-0.228463 0.332797 -0.394198 
-0.0920836 -0.310639 -0.451296 
0.287882 -0.319009 -0.0680388 
0.449956 0.0525166 -0.160385 
0.0452066 0.120641 -0.330709 
-0.114967 0.313034 -0.406078 
0.162468 -0.432856 -0.234548 
0.238802 -0.140254 -0.3932 
0.110321 -0.02302 -0.220438 
0.196061 0.306963 -0.33908 
0.201308 0.385286 -0.396458 
0.44996 -0.440026 -0.314999 
0.334812 -0.173182 -0.370628 
0.250291 -0.0609297 -0.450033 
0.448782 0.0508752 -0.362396 
0.440832 0.40812 -0.299847 
-0.438715 -0.457656 -0.0110724 
-0.228393 -0.171395 -0.258322 
-0.423528 -0.112778 -0.406038 
-0.206931 0.271651 -0.332691 
-0.33627 0.239487 -0.367366 
-0.139937 -0.290088 -0.369805 
0.129659 -0.45002 -0.0925831 
-0.306295 0.363909 -0.180767 
-0.105765 0.275279 -0.326248 
-0.223863 0.455072 -0.435962 
-0.00131376 -0.339723 -0.359539 
0.117553 -0.239971 -0.149703 
-0.177237 -0.0698143 -0.304242 
0.018603 0.20043 -0.301345 
0.0100653 0.294359 -0.348815 
0.0754781 -0.412162 -0.273886 
0.13544 -0.0967041 -0.398349 
0.257382 -0.117746 -0.265051 
0.23194 0.184354 -0.324849 
0.139577 0.448876 -0.350141 
0.3874 -0.228286 -0.305729 
0.344034 -0.0671711 -0.366716 
0.321288 0.0577353 -0.371908 
0.401939 0.302796 -0.310573 
0.446626 0.377613 -0.213112 
-0.329237 -0.447802 -0.0749722 
-0.448625 -0.0991412 -0.263733 
-0.357538 0.0109712 -0.242069 
-0.45 0.0686202 -0.354559 
-0.418116 0.261361 -0.289969 
-0.267464 -0.309063 -0.446443 
-0.179846 -0.276172 -0.242041 
-0.143291 0.400395 -0.0753346 
-0.125969 0.189193 -0.333843 
-0.139704 0.441988 -0.350262 
0.00595345 -0.435268 -0.356045 
0.0156555 -0.0964644 -0.255865 
0.0157178 -0.224503 -0.450007 
-0.0268966 0.270418 -0.246813 
-0.00589904 0.411068 -0.36965 
0.0745947 -0.426591 -0.172243 
0.098005 -0.0405469 -0.33092 
0.287629 -0.160539 -0.187064 
0.203365 0.136852 -0.268042 
0.249132 0.450034 -0.279198 
0.449994 -0.309528 -0.279787 
0.449985 -0.149382 -0.289328 
0.364973 0.0397796 -0.283808 
0.317707 0.248926 -0.30937 
0.38221 0.426909 -0.194962 
-0.244944 -0.44391 -0.147065 
-0.442993 0.230287 -0.198269 
-0.293054 0.190661 -0.183545 
-0.18952 0.0760136 -0.342329 
-0.3753 0.450002 -0.287549 
-0.226283 -0.3492 -0.241775 
-0.0437694 -0.261472 -0.306763 
0.0154918 -0.24322 -0.228313 
-0.157847 0.116053 -0.253558 
-0.16736 0.350992 -0.327684 
-0.0438082 -0.386093 -0.290752 
-0.185889 -0.0952477 0.191393 
-0.027647 0.205074 -0.165973 
-0.0559189 0.117307 -0.31076 
0.103612 0.358968 -0.328909 
0.263402 -0.4345 -0.134199 
0.218933 -0.196589 -0.310638 
0.293514 -0.106427 -0.120382 
0.15106 0.22753 -0.288595 
0.20275 0.352933 -0.252975 
0.410049 -0.389784 -0.235342 
0.446298 -0.225842 -0.22497 
0.435152 -0.0341919 -0.311657 
0.303673 0.118451 -0.291126 
0.40686 0.404138 -0.122087 
-0.253241 -0.332605 -0.150165 
-0.416651 -0.3349 -0.316793 
-0.430201 0.331336 -0.133609 
-0.341601 0.323539 -0.0596255 
-0.448883 0.426431 -0.00656624 
-0.142047 -0.416911 -0.251244 
-0.0526171 0.1364 -0.0626572 
-0.259754 -0.176568 -0.0218793 
-0.183312 0.175968 -0.183038 
-0.158765 0.338226 -0.21938 
-0.061751 -0.384822 -0.204419 
-0.137921 -0.14139 -0.0123608 
-0.111811 -0.0248 -0.163784 
-0.00390067 0.110328 -0.194412 
0.0252786 0.446715 -0.277137 
0.298653 -0.328782 -0.169982 
0.246885 -0.295085 -0.342048 
0.350535 -0.0517713 -0.06906 
0.154755 0.272575 -0.217543 
0.207966 0.405683 -0.133613 
0.358471 -0.450012 -0.170027 
0.449951 -0.199497 -0.0779963 
0.336067 0.130148 -0.00131345 
0.449956 0.152833 -0.173234 
0.425796 0.387973 -0.0414042 
-0.297944 -0.320262 -0.347249 
-0.118073 -0.20381 -0.272828 
-0.32524 -0.0196879 -0.143748 
-0.219658 0.205213 -0.259081 
-0.423049 0.444461 -0.199873 
-0.248642 -0.429574 -0.269061 
0.0982983 -0.283583 -0.305846 
-0.308875 0.256954 -0.126662 
-0.247866 0.301999 -0.206075 
-0.150335 0.442466 -0.239875 
0.0161905 -0.380995 -0.160736 
0.450004 -0.389811 0.00376462 
0.0766515 0.437027 -0.18661 
-0.0742765 0.406674 -0.321008 
-0.0381174 0.447864 -0.216615 
0.354282 -0.395719 -0.0875862 
0.372839 -0.0983896 -0.168099 
0.194947 -0.0258747 -0.288348 
0.221407 0.199412 -0.198144 
0.0883304 0.238887 -0.366815 
0.356367 -0.302095 -0.245077 
0.351303 -0.149683 -0.255585 
0.450031 0.0839185 -0.255291 
0.448928 0.215961 -0.266249 
0.408126 0.4509 -0.0129088 
-0.336875 -0.393803 0.0190913 
-0.138322 -0.34598 -0.137786 
-0.433252 -0.112145 -0.179603 
-0.450017 0.094876 -0.170501 
-0.345808 0.197055 -0.264869 
-0.144614 -0.443145 -0.165818 
-0.0636284 -0.289501 -0.176539 
-0.228727 0.450007 -0.29581 
-0.282393 0.311535 -0.281029 
-0.218254 0.435221 -0.166493 
0.0406142 -0.406488 -0.0754791 
-0.115348 0.450006 0.125693 
0.0320678 0.18261 -0.0889648 
-0.0712166 0.306817 -0.192908 
0.00602209 0.367788 -0.181802 
0.270789 -0.417615 -0.0242749 
0.0284034 -0.0910865 -0.00467877 
0.145733 -0.0380116 -0.135372 
0.288382 0.173619 -0.140806 
0.0702478 0.253956 -0.151245 
0.405854 -0.281739 -0.152604 
0.450012 -0.147239 -0.163236 
0.330671 -0.0523353 -0.265437 
0.450002 0.277161 -0.187175 
0.301612 0.414746 -0.0779409 
-0.290685 -0.353968 -0.0589037 
-0.418237 0.00062293 -0.180739 
-0.39371 -0.296245 -0.0644988 
-0.431924 0.137146 -0.284011 
-0.450008 0.450007 -0.103734 
-0.155413 -0.427864 -0.0652417 
-0.137294 -0.321497 -0.0390103 
-0.281124 0.0908622 -0.305074 
-0.134626 0.279085 -0.104019 
-0.250154 0.38122 -0.0942816 
-0.0218532 -0.426331 -0.0130339 
-0.407154 -0.173582 -0.316662 
0.0114329 -0.00302191 -0.220026 
-0.043701 0.290939 -0.0858024 
-0.00871933 0.443649 -0.127565 
0.152571 -0.390487 -0.0120924 
0.451715 0.003169 0.018001 
0.0756151 -0.0284486 -0.0682338 
0.30412 0.336673 -0.201337 
0.281723 0.449911 -0.184674 
0.372747 -0.449997 -0.0170876 
0.439313 -0.0455001 0.0945386 
0.245931 -0.0568925 -0.350249 
0.348082 0.252713 -0.187298 
0.439426 0.452683 0.0757154 
-0.348282 -0.214031 0.00973074 
-0.388438 -0.271851 -0.160628 
-0.418625 0.101501 -0.0891745 
-0.388301 0.3156 -0.211414 
-0.449979 0.365705 -0.273337 
-0.174019 -0.433818 0.0535904 
-0.0579489 -0.149555 -0.213886 
-0.224749 0.291007 -0.0846868 
-0.101933 0.385734 -0.161787 
-0.0738884 0.440189 -0.0449587 
-0.0918797 -0.446548 0.0320785 
0.0795607 -0.166558 -0.224119 
-0.0687117 0.0660992 -0.131926 
0.0332797 0.249327 -0.0280669 
0.00793275 0.423392 -0.0544572 
0.13748 -0.336853 -0.0984735 
0.178126 -0.189725 -0.225139 
0.126632 0.151255 -0.181272 
0.312733 0.220998 -0.0557452 
0.171371 0.449375 -0.216217 
0.45001 -0.416639 -0.147565 
0.320764 -0.267355 0.0272314 
0.411551 -0.0217303 -0.215283 
0.369743 0.165696 -0.231543 
0.41877 0.272833 0.178384 
-0.420889 -0.381761 0.0626725 
-0.450017 -0.216299 -0.237068 
-0.365498 0.218365 -0.0742801 
-0.447906 0.0629087 0.00227044 
-0.450021 0.194565 -0.105141 
-0.227126 -0.379453 0.00388382 
-0.277424 -0.111456 -0.0956914 
-0.322413 -0.110028 -0.184978 
-0.191181 0.356747 0.00628067 
-0.132302 0.399822 0.0307198 
0.0410311 -0.186947 -0.123703 
-0.150396 -0.248269 -0.118142 
0.219621 0.136156 -0.0735706 
0.105505 0.317376 -0.0311786 
-0.0206515 0.439516 0.036552 
0.0776655 -0.215218 -0.0144785 
0.455329 -0.072557 -0.105626 
0.281623 0.062282 -0.0190968 
0.190649 0.224229 -0.108683 
0.103752 0.33649 0.0865055 
0.398984 -0.0786362 0.00922774 
0.448796 -0.267232 -0.00392225 
0.36574 0.0105445 -0.126605 
0.426473 0.111772 -0.0833498 
0.327215 0.318584 -0.104842 
-0.427486 -0.179718 -0.128232 
-0.450004 -0.241816 -0.026319 
-0.396145 -0.005767 -0.0860568 
-0.44994 0.282438 0.0597374 
-0.343247 0.448183 -0.139663 
-0.239308 -0.304716 0.0680382 
-0.274323 -0.275154 -0.0136981 
-0.326719 0.0623582 -0.0421072 
-0.119487 0.218732 -0.0388114 
-0.127264 0.193965 0.0399413 
0.0271106 -0.31228 -0.00887363 
-0.121318 -0.104618 -0.104304 
0.111514 0.11301 -0.0891998 
-0.156026 0.105425 -0.122825 
0.0419249 0.409974 0.117911 
0.0393124 -0.291549 -0.138423 
0.285298 -0.0738337 -0.00903673 
0.267754 0.0238893 -0.0923409 
0.185142 0.281147 -0.0288618 
0.149179 0.325942 -0.147245 
0.328126 -0.341724 0.0936744 
0.257857 -0.177837 -0.0665077 
0.416339 0.187247 -0.0185022 
0.409475 0.23504 -0.106063 
0.437317 0.27626 0.00967356 
-0.336329 -0.347312 0.102078 
-0.338677 -0.226026 -0.234296 
-0.447911 -0.0601736 -0.0163181 
-0.449999 0.132469 0.0748872 
-0.279873 0.366219 0.00645848 
-0.0619577 -0.180867 -0.127478 
-0.177782 -0.2331 -0.0126762 
-0.234136 0.00245384 -0.0342688 
-0.28682 0.217708 -0.0026278 
-0.20463 0.411542 0.0976943 
0.21 -0.0592574 -0.0936194 
0.00167152 -0.0809095 -0.158078 
-0.136851 -0.0332462 0.130018 
-0.0229147 0.2432 0.0492498 
-0.0712257 0.350344 0.0852277 
0.314896 -0.441602 0.076832 
0.32868 -0.210321 0.111891 
0.177942 0.0395948 -0.122126 
0.263666 0.28839 0.0169532 
0.240217 0.450004 -0.00432018 
0.44778 -0.165786 0.0161195 
0.315752 0.362449 0.00206856 
0.449901 0.0881824 0.0109597 
0.432141 0.161328 0.0767807 
0.385083 0.367464 0.0712932 
-0.402499 -0.396004 0.148119 
-0.435869 -0.264798 0.0699653 
-0.196038 -0.0729377 -0.0680621 
-0.444538 0.269618 -0.0392977 
-0.38852 0.352842 0.0240948 
-0.21077 -0.392913 0.105931 
-0.247592 -0.00258738 0.127074 
-0.0421459 -0.012855 -0.0766011 
-0.280859 0.138817 -0.085759 
-0.284824 0.399327 0.168664 
0.18771 -0.429785 0.069378 
0.119426 -0.133573 -0.125745 
0.0326571 0.0523615 -0.114171 
-0.0890323 0.107389 0.0778925 
-0.041104 0.411249 0.166033 
0.30749 -0.414227 0.172409 
0.205456 -0.116057 0.00204813 
0.0965085 0.191602 0.0139625 
0.27003 0.169864 0.157287 
0.156363 0.417336 -0.0487542 
0.41425 -0.450012 0.0751495 
0.332084 -0.161154 0.0341595 
-0.212206 0.132981 0.0489546 
0.36535 0.207583 0.135068 
0.317537 0.450559 0.0683134 
-0.441888 -0.450718 0.183061 
-0.281017 0.0511804 0.0461507 
-0.395631 0.00120797 0.0460312 
-0.420021 0.157963 -0.0170387 
-0.450002 0.417483 0.093042 
-0.29664 -0.449889 0.0757727 
-0.237884 -0.153378 0.0728939 
-0.17351 0.0326931 0.0392693 
-0.346785 0.131631 0.0713667 
-0.432147 0.405192 0.199813 
0.238623 -0.252713 0.126144 
-0.0455646 -0.145181 -0.050504 
-0.0899641 0.0621383 -0.00709904 
0.0229574 0.331204 0.0315093 
0.0130264 0.314786 0.129521 
0.194112 -0.247334 -0.055446 
0.214807 -0.297043 0.0357424 
0.193346 -0.0145499 -0.0165325 
0.192537 0.170417 0.015235 
0.079768 0.425683 0.0149885 
0.424739 -0.358276 0.113526 
0.449991 -0.15247 0.115198 
0.347406 0.0075395 0.0281517 
0.273962 0.165958 0.0683871 
0.450592 0.35391 0.125377 
-0.311226 -0.310719 0.165862 
-0.202284 -0.0608826 0.0596389 
-0.43928 -0.00770287 0.151473 
-0.370751 0.221883 0.0516993 
-0.363607 0.44882 0.132461 
-0.179992 -0.243802 0.0887175 
-0.203334 -0.188544 0.159907 
-0.0869799 -0.0241552 0.043317 
-0.315708 0.312741 0.0833394 
-0.220402 0.237768 0.0697437 
-0.0476457 -0.115015 0.0481404 
-0.0148466 -0.252273 -0.0667782 
0.0177096 0.00265795 0.00198204 
0.236226 -0.155063 0.0812199 
0.0130108 0.448589 0.227189 
0.208138 -0.385661 0.165466 
0.444349 -0.300645 0.183453 
0.309389 0.0622304 0.10725 
0.17766 0.247277 0.072946 
0.182848 0.366062 0.0329444 
0.402654 -0.406186 0.207858 
0.449665 -0.202886 0.201555 
0.325318 -0.0721471 0.0843647 
0.400653 0.0921786 0.141789 
0.231093 0.424483 0.106234 
VERTICES 500 1000
1 0
1 1
1 2
1 3
1 4
1 5
1 6
1 7
1 8
1 9
1 10
1 11
1 12
1 13
1 14
1 15
1 16
1 17
1 18
1 19
1 20
1 21
1 22
1 23
1 24
1 25
1 26
1 27
1 28
1 29
1 30
1 31
1 32
1 33
1 34
1 35
1 36
1 37
1 38
1 39
1 40
1 41
1 42
1 43
1 44
1 45
1 46
1 47
1 48
1 49
1 50
1 51
1 52
1 53
1 54
1 55
1 56
1 57
1 58
1 59
1 60
1 61
1 62
1 63
1 64
1 65
1 66
1 67
1 68
1 69
1 70
1 71
1 72
1 73
1 74
1 75
1 76
1 77
1 78
1 79
1 80
1 81
1 82
1 83
1 84
1 85
1 86
1 87
1 88
1 89
1 90
1 91
1 92
1 93
1 94
1 95
1 96
1 97
1 98
1 99
1 100
1 101
1 102
1 103
1 104
1 105
1 106
1 107
1 108
1 109
1 110
1 111
1 112
1 113
1 114
1 115
1 116
1 117
1 118
1 119
1 120
1 121
1 122
1 123
1 124
1 125
1 126
1 127
1 128
1 129
1 130
1 131
1 132
1 133
1 134
1 135
1 136
1 137
1 138
1 139
1 140
1 141
1 142
1 143
1 144
1 145
1 146
1 147
1 148
1 149
1 150
1 151
1 152
1 153
1 154
1 155
1 156
1 157
1 158
1 159
1 160
1 161
1 162
1 163
1 164
1 165
1 166
1 167
1 168
1 169
1 170
1 171
1 172
1 173
1 174
1 175
1 176
1 177
1 178
1 179
1 180
1 181
1 182
1 183
1 184
1 185
1 186
1 187
1 188
1 189
1 190
1 191
1 192
1 193
1 194
1 195
1 196
1 197
1 198
1 199
1 200
1 201
1 202
1 203
1 204
1 205
1 206
1 207
1 208
1 209
1 210
1 211
1 212
1 213
1 214
1 215
1 216
1 217
1 218
1 219
1 220
1 221
1 222
1 223
1 224
1 225
1 226
1 227
1 228
1 229
1 230
1 231
1 232
1 233
1 234
1 235
1 236
1 237
1 238
1 239
1 240
1 241
1 242
1 243
1 244
1 245
1 246
1 247
1 248
1 249
1 250
1 251
1 252
1 253
1 254
1 255
1 256
1 257
1 258
1 259
1 260
1 261
1 262
1 263
1 264
1 265
1 266
1 267
1 268
1 269
1 270
1 271
1 272
1 273
1 274
1 275
1 276
1 277
1 278
1 279
1 280
1 281
1 282
1 283
1 284
1 285
1 286
1 287
1 288
1 289
1 290
1 291
1 292
1 293
1 294
1 295
1 296
1 297
1 298
1 299
1 300
1 301
1 302
1 303
1 304
1 305
1 306
1 307
1 308
1 309
1 310
1 311
1 312
1 313
1 314
1 315
1 316
1 317
1 318
1 319
1 320
1 321
1 322
1 323
1 324
1 325
1 326
1 327
1 328
1 329
1 330
1 331
1 332
1 333
1 334
1 335
1 336
1 337
1 338
1 339
1 340
1 341
1 342
1 343
1 344
1 345
1 346
1 347
1 348
1 349
1 350
1 351
1 352
1 353
1 354
1 355
1 356
1 357
1 358
1 359
1 360
1 361
1 362
1 363
1 364
1 365
1 366
1 367
1 368
1 369
1 370
1 371
1 372
1 373
1 374
1 375
1 376
1 377
1 378
1 379
1 380
1 381
1 382
1 383
1 384
1 385
1 386
1 387
1 388
1 389
1 390
1 391
1 392
1 393
1 394
1 395
1 396
1 397
1 398
1 399
1 400
1 401
1 402
1 403
1 404
1 405
1 406
1 407
1 408
1 409
1 410
1 411
1 412
1 413
1 414
1 415
1 416
1 417
1 418
1 419
1 420
1 421
1 422
1 423
1 424
1 425
1 426
1 427
1 428
1 429
1 430
1 431
1 432
1 433
1 434
1 435
1 436
1 437
1 438
1 439
1 440
1 441
1 442
1 443
1 444
1 445
1 446
1 447
1 448
1 449
1 450
1 451
1 452
1 453
1 454
1 455
1 456
1 457
1 458
1 459
1 460
1 461
1 462
1 463
1 464
1 465
1 466
1 467
1 468
1 469
1 470
1 471
1 472
1 473
1 474
1 475
1 476
1 477
1 478
1 479
1 480
1 481
1 482
1 483
1 484
1 485
1 486
1 487
1 488
1 489
1 490
1 491
1 492
1 493
1 494
1 495
1 496
1 497
1 498
1 499
POINT_DATA 500
SCALARS id int 1
LOOKUP_TABLE default
0
1
2
3
4
5
6
7
8
9
10
11
12
13
14
15
16
17
18
19
20
21
22
23
24
25
26
27
28
29
30
31
32
33
34
35
36
37
38
39
40
41
42
43
44
45
46
47
48
49
50
51
52
53
54
55
56
57
58
59
60
61
62
63
64
65
66
67
68
69
70
71
72
73
74
75
76
77
78
79
80
81
82
83
84
85
86
87
88
89
90
91
92
93
94
95
96
97
98
99
100
101
102
103
104
105
106
107
108
109
110
111
112
113
114
115
116
117
118
119
120
121
122
123
124
125
126
127
128
129
130
131
132
133
134
135
136
137
138
139
140
141
142
143
144
145
146
147
148
149
150
151
152
153
154
155
156
157
158
159
160
161
162
163
164
165
166
167
168
169
170
171
172
173
174
175
176
177
178
179
180
181
182
183
184
185
186
187
188
189
190
191
192
193
194
195
196
197
198
199
200
201
202
203
204
205
206
207
208
209
210
211
212
213
214
215
216
217
218
219
220
221
222
223
224
225
226
227
228
229
230
231
232
233
234
235
236
237
238
239
240
241
242
243
244
245
246
247
248
249
250
251
252
253
254
255
256
257
258
259
260
261
262
263
264
265
266
267
268
269
270
271
272
273
274
275
276
277
278
279
280
281
282
283
284
285
286
287
288
289
290
291
292
293
294
295
296
297
298
299
300
301
302
303
304
305
306
307
308
309
310
311
312
313
314
315
316
317
318
319
320
321
322
323
324
325
326
327
328
329
330
331
332
333
334
335
336
337
338
339
340
341
342
343
344
345
346
347
348
349
350
351
352
353
354
355
356
357
358
359
360
361
362
363
364
365
366
367
368
369
370
371
372
373
374
375
376
377
378
379
380
381
382
383
384
385
386
387
388
389
390
391
392
393
394
395
396
397
398
399
400
401
402
403
404
405
406
407
408
409
410
411
412
413
414
415
416
417
418
419
420
421
422
423
424
425
426
427
428
429
430
431
432
433
434
435
436
437
438
439
440
441
442
443
444
445
446
447
448
449
450
451
452
453
454
455
456
457
458
459
460
461
462
463
464
465
466
467
468
469
470
471
472
473
474
475
476
477
478
479
480
481
482
483
484
485
486
487
488
489
490
491
492
493
494
495
496
497
498
499
SCALARS type int 1
LOOKUP_TABLE default
0
0
0
0
0
0
0
0
0
0
0
0
0
0
0
0
0
0
0
0
0
0
0
0
0
0
0
0
0
0
0
0
0
0
0
0
0
0
0
0
0
0
0
0
0
0
0
0
0
0
0
0
0
0
0
0
0
0
0
0
0
0
0
0
0
0
0
0
0
0
0
0
0
0
0
0
0
0
0
0
0
0
0
0
0
0
0
0
0
0
0
0
0
0
0
0
0
0
0
0
0
0
0
0
0
0
0
0
0
0
0
0
0
0
0
0
0
0
0
0
0
0
0
0
0
0
0
0
0
0
0
0
0
0
0
0
0
0
0
0
0
0
0
0
0
0
0
0
0
0
0
0
0
0
0
0
0
0
0
0
0
0
0
0
0
0
0
0
0
0
0
0
0
0
0
0
0
0
0
0
0
0
0
0
0
0
0
0
0
0
0
0
0
0
0
0
0
0
0
0
0
0
0
0
0
0
0
0
0
0
0
0
0
0
0
0
0
0
0
0
0
0
0
0
0
0
0
0
0
0
0
0
0
0
0
0
0
0
0
0
0
0
0
0
0
0
0
0
0
0
0
0
0
0
0
0
0
0
0
0
0
0
0
0
0
0
0
0
0
0
0
0
0
0
0
0
0
0
0
0
0
0
0
0
0
0
0
0
0
0
0
0
0
0
0
0
0
0
0
0
0
0
0
0
0
0
0
0
0
0
0
0
0
0
0
0
0
0
0
0
0
0
0
0
0
0
0
0
0
0
0
0
0
0
0
0
0
0
0
0
0
0
0
0
0
0
0
0
0
0
0
0
0
0
0
0
0
0
0
0
0
0
0
0
0
0
0
0
0
0
0
0
0
0
0
0
0
0
0
0
0
0
0
0
0
0
0
0
0
0
0
0
0
0
0
0
0
0
0
0
0
0
0
0
0
0
0
0
0
0
0
0
0
0
0
0
0
0
0
0
0
0
0
0
0
0
0
0
0
0
0
0
0
0
0
0
0
0
0
0
0
0
0
0
0
0
0
0
0
0
0
0
0
0
0
0
0
0
0
0
0
0
0
0
0
0
0
0
0
0
0
0
0
0
0
0
0
0
0
0
0
0
0
0
0
0
0
0
0
0
0
0
0
0
0
0
0
0
0
0
SCALARS damp_viscous double 1
LOOKUP_TABLE default
0
0
0
0
0
0
0
0
0
0
0
0
0
0
0
0
0
0
0
0
0
0
0
0
0
0
0
0
0
0
0
0
0
0
0
0
0
0
0
0
0
0
0
0
0
0
0
0
0
0
0
0
0
0
0
0
0
0
0
0
0
0
0
0
0
0
0
0
0
0
0
0
0
0
0
0
0
0
0
0
0
0
0
0
0
0
0
0
0
0
0
0
0
0
0
0
0
0
0
0
0
0
0
0
0
0
0
0
0
0
0
0
0
0
0
0
0
0
0
0
0
0
0
0
0
0
0
0
0
0
0
0
0
0
0
0
0
0
0
0
0
0
0
0
0
0
0
0
0
0
0
0
0
0
0
0
0
0
0
0
0
0
0
0
0
0
0
0
0
0
0
0
0
0
0
0
0
0
0
0
0
0
0
0
0
0
0
0
0
0
0
0
0
0
0
0
0
0
0
0
0
0
0
0
0
0
0
0
0
0
0
0
0
0
0
0
0
0
0
0
0
0
0
0
0
0
0
0
0
0
0
0
0
0
0
0
0
0
0
0
0
0
0
0
0
0
0
0
0
0
0
0
0
0
0
0
0
0
0
0
0
0
0
0
0
0
0
0
0
0
0
0
0
0
0
0
0
0
0
0
0
0
0
0
0
0
0
0
0
0
0
0
0
0
0
0
0
0
0
0
0
0
0
0
0
0
0
0
0
0
0
0
0
0
0
0
0
0
0
0
0
0
0
0
0
0
0
0
0
0
0
0
0
0
0
0
0
0
0
0
0
0
0
0
0
0
0
0
0
0
0
0
0
0
0
0
0
0
0
0
0
0
0
0
0
0
0
0
0
0
0
0
0
0
0
0
0
0
0
0
0
0
0
0
0
0
0
0
0
0
0
0
0
0
0
0
0
0
0
0
0
0
0
0
0
0
0
0
0
0
0
0
0
0
0
0
0
0
0
0
0
0
0
0
0
0
0
0
0
0
0
0
0
0
0
0
0
0
0
0
0
0
0
0
0
0
0
0
0
0
0
0
0
0
0
0
0
0
0
0
0
0
0
0
0
0
0
0
0
0
0
0
0
0
0
0
0
0
0
0
0
0
0
0
0
0
0
0
0
0
0
0
0
0
0
0
0
0
0
0
SCALARS damp_numerical double 1
LOOKUP_TABLE default
0.5
0.5
0.5
0.5
0.5
0.5
0.5
0.5
0.5
0.5
0.5
0.5
0.5
0.5
0.5
0.5
0.5
0.5
0.5
0.5
0.5
0.5
0.5
0.5
0.5
0.5
0.5
0.5
0.5
0.5
0.5
0.5
0.5
0.5
0.5
0.5
0.5
0.5
0.5
0.5
0.5
0.5
0.5
0.5
0.5
0.5
0.5
0.5
0.5
0.5
0.5
0.5
0.5
0.5
0.5
0.5
0.5
0.5
0.5
0.5
0.5
0.5
0.5
0.5
0.5
0.5
0.5
0.5
0.5
0.5
0.5
0.5
0.5
0.5
0.5
0.5
0.5
0.5
0.5
0.5
0.5
0.5
0.5
0.5
0.5
0.5
0.5
0.5
0.5
0.5
0.5
0.5
0.5
0.5
0.5
0.5
0.5
0.5
0.5
0.5
0.5
0.5
0.5
0.5
0.5
0.5
0.5
0.5
0.5
0.5
0.5
0.5
0.5
0.5
0.5
0.5
0.5
0.5
0.5
0.5
0.5
0.5
0.5
0.5
0.5
0.5
0.5
0.5
0.5
0.5
0.5
0.5
0.5
0.5
0.5
0.5
0.5
0.5
0.5
0.5
0.5
0.5
0.5
0.5
0.5
0.5
0.5
0.5
0.5
0.5
0.5
0.5
0.5
0.5
0.5
0.5
0.5
0.5
0.5
0.5
0.5
0.5
0.5
0.5
0.5
0.5
0.5
0.5
0.5
0.5
0.5
0.5
0.5
0.5
0.5
0.5
0.5
0.5
0.5
0.5
0.5
0.5
0.5
0.5
0.5
0.5
0.5
0.5
0.5
0.5
0.5
0.5
0.5
0.5
0.5
0.5
0.5
0.5
0.5
0.5
0.5
0.5
0.5
0.5
0.5
0.5
0.5
0.5
0.5
0.5
0.5
0.5
0.5
0.5
0.5
0.5
0.5
0.5
0.5
0.5
0.5
0.5
0.5
0.5
0.5
0.5
0.5
0.5
0.5
0.5
0.5
0.5
0.5
0.5
0.5
0.5
0.5
0.5
0.5
0.5
0.5
0.5
0.5
0.5
0.5
0.5
0.5
0.5
0.5
0.5
0.5
0.5
0.5
0.5
0.5
0.5
0.5
0.5
0.5
0.5
0.5
0.5
0.5
0.5
0.5
0.5
0.5
0.5
0.5
0.5
0.5
0.5
0.5
0.5
0.5
0.5
0.5
0.5
0.5
0.5
0.5
0.5
0.5
0.5
0.5
0.5
0.5
0.5
0.5
0.5
0.5
0.5
0.5
0.5
0.5
0.5
0.5
0.5
0.5
0.5
0.5
0.5
0.5
0.5
0.5
0.5
0.5
0.5
0.5
0.5
0.5
0.5
0.5
0.5
0.5
0.5
0.5
0.5
0.5
0.5
0.5
0.5
0.5
0.5
0.5
0.5
0.5
0.5
0.5
0.5
0.5
0.5
0.5
0.5
0.5
0.5
0.5
0.5
0.5
0.5
0.5
0.5
0.5
0.5
0.5
0.5
0.5
0.5
0.5
0.5
0.5
0.5
0.5
0.5
0.5
0.5
0.5
0.5
0.5
0.5
0.5
0.5
0.5
0.5
0.5
0.5
0.5
0.5
0.5
0.5
0.5
0.5
0.5
0.5
0.5
0.5
0.5
0.5
0.5
0.5
0.5
0.5
0.5
0.5
0.5
0.5
0.5
0.5
0.5
0.5
0.5
0.5
0.5
0.5
0.5
0.5
0.5
0.5
0.5
0.5
0.5
0.5
0.5
0.5
0.5
0.5
0.5
0.5
0.5
0.5
0.5
0.5
0.5
0.5
0.5
0.5
0.5
0.5
0.5
0.5
0.5
0.5
0.5
0.5
0.5
0.5
0.5
0.5
0.5
0.5
0.5
0.5
0.5
0.5
0.5
0.5
0.5
0.5
0.5
0.5
0.5
0.5
0.5
0.5
0.5
0.5
0.5
0.5
0.5
0.5
0.5
0.5
0.5
0.5
0.5
0.5
0.5
0.5
0.5
0.5
0.5
0.5
0.5
0.5
0.5
0.5
0.5
0.5
0.5
0.5
0.5
0.5
0.5
0.5
0.5
0.5
0.5
0.5
0.5
0.5
0.5
0.5
0.5
0.5
0.5
0.5
0.5
0.5
0.5
0.5
0.5
0.5
0.5
0.5
0.5
0.5
0.5
0.5
0.5
0.5
SCALARS quat double 4
LOOKUP_TABLE default
0.962958 0.0902828 -0.0546497 0.248142 
0.785223 0.148164 0.601155 0.00919872 
0.988722 0.0986431 -0.0506936 -0.100641 
-0.371628 -0.475129 -0.555903 -0.571942 
0.0803812 0.7054 -0.374856 0.596182 
0.8029 -0.274377 -0.201436 0.48938 
0.110442 -0.303602 -0.317093 0.891673 
0.878067 0.0530696 0.341022 0.331491 
-0.111429 0.421705 0.899784 -0.0117321 
0.0887402 0.0913335 -0.00398288 0.991851 
0.922765 -0.144689 -0.0923402 0.345026 
0.168202 -0.910736 -0.240186 -0.290826 
0.0825111 0.404909 -0.0496132 0.909274 
0.592703 0.712942 0.359697 -0.10505 
0.338697 0.81632 -0.184641 0.4299 
0.996084 0.0807116 -0.0360225 -0.00226057 
0.640692 0.0530092 -0.0347022 0.765179 
0.988681 0.0800249 -0.0243201 0.124557 
0.973173 0.112361 -0.0905277 0.179201 
-0.766449 0.165229 0.612844 0.0983751 
0.836519 0.127681 0.509015 -0.157601 
-0.300476 0.852408 -0.285933 0.318368 
0.775335 -0.287909 -0.471717 -0.305691 
0.543642 0.742974 -0.372614 -0.116625 
0.984022 0.103591 -0.0983993 0.106244 
0.932042 0.15538 -0.171077 0.279084 
-0.590628 0.715263 -0.313617 0.202983 
0.975604 0.156977 -0.123497 -0.0911221 
0.688857 -0.411646 -0.433468 0.410036 
-0.158944 0.387676 -0.338536 0.842518 
0.735868 0.349941 0.506557 0.281849 
0.392057 -0.666337 -0.15762 -0.614363 
0.137409 -0.0470567 -0.948049 0.283034 
0.17154 0.122706 0.0738733 0.97471 
0.550044 0.73648 0.181913 -0.349223 
0.410838 -0.146346 0.0445389 0.898783 
-0.296372 0.505339 -0.492821 0.643369 
0.247044 0.326602 0.281055 0.867933 
0.7296 -0.629102 -0.256112 0.0795007 
0.579671 0.641875 -0.105887 -0.490679 
0.946016 0.143818 -0.158333 0.243518 
0.701263 0.191108 -0.107408 0.678359 
0.977193 -0.206974 -0.0463621 0.0102795 
0.00992847 0.819832 0.551479 -0.153777 
0.731058 -0.574765 -0.310966 -0.196212 
0.331928 0.271416 -0.681148 0.593459 
0.548645 -0.182832 0.140151 -0.803691 
-0.951967 0.135944 -0.178775 0.208131 
0.41169 0.776038 -0.384659 0.283398 
-0.842426 0.508323 0.0986501 -0.148978 
0.927579 0.295401 -0.204118 -0.103306 
0.323499 -0.116637 0.886084 -0.310805 
0.827316 -0.0762919 0.556529 0.00197315 
-0.663521 0.425829 -0.614678 -0.0240873 
-0.503372 0.491912 0.482779 -0.521118 
-0.610669 0.475197 0.477198 -0.416597 
0.125758 0.217501 0.964669 -0.079316 
0.0774149 -0.0540474 -0.846407 -0.5241 
-0.187182 0.0400762 0.783005 -0.591828 
0.349816 -0.911851 -0.213721 0.0219036 
-0.446758 0.229159 0.659294 -0.559665 
-0.861389 -0.0817336 -0.023088 0.500795 
-0.280577 -0.714027 0.130911 0.627937 
0.105013 0.238489 0.956865 0.128473 
-0.110995 0.0308702 0.991628 -0.0583267 
0.91439 0.247785 -0.284756 -0.146316 
-0.12801 -0.953611 -0.184313 0.20067 
0.961471 -0.163572 -0.129942 0.178698 
0.894049 0.0140292 0.411758 -0.175885 
-0.929051 -0.0882167 -0.107002 -0.342975 
0.63886 -0.409404 -0.287454 0.584481 
-0.565301 -0.745877 -0.342179 -0.0837664 
0.359049 0.366474 0.0367704 -0.857571 
-0.582845 0.746781 -0.294839 -0.125219 
0.944116 -0.244711 0.0222304 -0.2197 
0.960238 0.114902 -0.116045 -0.226437 
0.557063 -0.0882139 -0.634358 0.528667 
0.881427 -0.266882 0.370459 -0.120915 
-0.581285 -0.204551 -0.123472 0.777831 
-0.542311 0.178678 -0.0993308 -0.814927 
0.892097 0.249522 0.0260228 -0.375799 
-0.339853 0.876501 0.0358523 0.339058 
0.931426 -0.133557 0.314816 -0.124491 
-0.225471 0.827702 -0.277956 0.432218 
0.968336 -0.227284 0.00603217 -0.103105 
0.756336 -0.478512 -0.40936 0.17722 
-0.169795 -0.332405 0.0974536 -0.922594 
0.763038 0.432036 0.267739 -0.399291 
0.320278 0.926397 0.0745346 -0.183455 
-0.179686 0.556092 -0.661096 0.47056 
0.867546 -0.222866 0.376145 -0.237085 
-0.815253 0.361236 -0.451876 0.0260728 
0.883037 -0.0315771 -0.396083 0.249735 
0.842863 -0.368624 0.391172 0.0261333 
0.792527 0.0266988 0.360818 -0.490917 
0.258174 -0.523059 -0.42737 -0.690731 
0.291457 -0.791082 0.479416 0.243725 
0.230496 -0.226428 -0.717438 0.617159 
-0.603857 0.586079 0.163693 -0.514853 
0.982429 -0.1144 -0.0197156 -0.146139 
0.840778 -0.0831805 -0.10567 -0.524412 
0.3077 0.525072 0.738028 0.291437 
-0.0241257 0.438364 -0.896235 0.0633892 
-0.619678 -0.588083 -0.516721 -0.0561981 
-0.215387 -0.0856162 -0.403486 0.885143 
0.942992 -0.150974 0.250597 0.158663 
-0.776767 0.479979 0.250381 -0.32181 
0.121716 0.743669 0.656029 -0.0420455 
0.821262 0.444884 -0.114043 -0.338529 
0.0100594 0.211121 -0.974947 0.0693254 
0.276618 -0.587956 -0.288165 0.703385 
-0.396876 -0.301004 0.670002 0.550439 
-0.0780249 -0.375684 0.249843 -0.889017 
0.818668 -0.262938 0.475894 0.184852 
-0.234861 0.0642264 0.0878474 0.965918 
0.902275 -0.358739 0.239149 0.0038464 
0.00732871 -0.803521 0.593831 0.0408082 
0.447783 -0.0752762 -0.398424 0.79692 
0.884924 0.0916533 0.0836905 0.448892 
0.239616 0.152996 -0.820863 0.495339 
-0.0237587 0.0948508 0.455277 -0.884964 
-0.126953 -0.269167 -0.731113 0.613927 
0.329887 -0.460215 -0.420196 -0.709092 
-0.930974 -0.221967 -0.188585 0.220122 
0.756425 -0.613136 0.00340874 0.227759 
0.775511 0.297984 -0.532846 -0.16082 
0.417595 0.631103 0.55965 -0.337809 
0.515264 0.274993 0.195237 -0.787886 
-0.467614 0.267229 0.825588 -0.168317 
0.446081 -0.443817 0.705755 0.325498 
-0.0200157 0.505735 0.728906 -0.461007 
-0.993964 -0.0665103 -0.0505594 0.0711061 
-0.0779165 -0.593331 -0.80065 -0.0291197 
0.210898 0.209014 -0.948485 0.110508 
0.122131 -0.911456 0.214026 0.32943 
0.131842 -0.0586137 0.817069 0.558194 
0.271884 0.742715 0.220354 0.570875 
-0.672973 -0.730753 0.0590614 -0.0980802 
0.312595 0.912065 -0.176199 -0.198434 
-0.0521289 0.814989 -0.576893 0.0164337 
-0.50787 0.0733664 -0.822956 0.24378 
0.437817 -0.26638 0.2887 0.808709 
-0.0979322 0.500974 -0.11795 0.851776 
0.935068 -0.275458 -0.183799 0.126443 
0.0159496 -0.507979 -0.779784 -0.365567 
-0.465987 -0.814017 0.242561 0.247783 
0.727114 -0.530092 0.342266 -0.270484 