# vtk DataFile Version 2.0
Generated by NetDEM
ASCII 
DATASET POLYDATA
POINTS 500 double
-0.421584 -0.393099 -0.462278 
-0.44999 -0.189877 -0.450033 
-0.405139 -0.0124337 -0.462865 
-0.450007 0.107601 -0.450017 
-0.450007 0.34996 -0.450014 
-0.293399 -0.430471 -0.455656 
-0.354664 -0.226003 -0.450007 
-0.188271 -0.00564762 -0.450039 
-0.1733 0.178807 -0.463979 
-0.256057 0.369286 -0.46442 
-0.0459862 -0.403392 -0.463951 
-0.151925 -0.130134 -0.450019 
-0.0514182 -0.0920186 -0.450061 
0.0393019 0.180716 -0.453042 
-0.0276089 0.320257 -0.443971 
0.192278 -0.408106 -0.463991 
0.165916 -0.208357 -0.463285 
0.171373 -0.00199991 -0.463203 
0.162257 0.20374 -0.464084 
0.293712 0.407616 -0.420774 
0.448216 -0.412397 -0.45005 
0.435087 -0.29309 -0.450016 
0.342856 -0.0125744 -0.450053 
0.374211 0.0870608 -0.450024 
0.372471 0.441019 -0.464839 
-0.439294 -0.400686 -0.393569 
-0.449997 -0.278404 -0.403535 
-0.408455 -0.0121994 -0.391272 
-0.442322 0.178638 -0.380008 
-0.449481 0.449995 -0.450041 
-0.350473 -0.39058 -0.394628 
-0.267725 -0.104124 -0.450007 
-0.165055 -0.101733 -0.224915 
-0.304584 0.166036 -0.465079 
-0.153957 0.406672 -0.452927 
-0.099223 -0.362569 -0.407592 
0.298203 -0.251459 -0.151086 
-0.0519913 -0.0156438 -0.315724 
0.0322339 0.261103 -0.452358 
0.128544 0.303297 -0.445447 
0.19522 -0.423695 -0.392331 
0.167666 -0.211875 -0.391728 
0.177161 0.0261007 -0.387844 
0.195252 0.113853 -0.454753 
0.287186 0.36551 -0.330307 
0.373734 -0.450019 -0.394979 
0.436203 -0.353358 -0.370225 
0.268303 -0.212268 -0.450025 
0.449701 0.152685 -0.450007 
0.425699 0.341339 -0.456665 
-0.436966 -0.440568 -0.330749 
-0.276861 -0.207804 -0.38983 
-0.298791 -0.000409567 -0.438916 
-0.285918 0.276129 -0.450015 
-0.448958 0.27948 -0.378846 
-0.19764 -0.378293 -0.452734 
0.198533 -0.354532 -0.309699 
-0.246308 -0.044303 -0.213707 
-0.169527 0.0796682 -0.451714 
-0.349114 0.334258 -0.343536 
0.0499256 -0.439369 -0.45095 
0.206554 -0.276036 -0.195628 
0.203297 0.0531703 -0.225863 
-0.0379399 0.225538 -0.396837 
0.253993 0.33321 -0.463534 
0.184234 -0.449006 -0.323391 
0.0551219 -0.101062 -0.451625 
0.159701 0.0691144 -0.331163 
0.267776 0.0658907 -0.442116 
0.114158 0.134944 -0.392579 
0.285889 -0.45 -0.450007 
0.372813 -0.209569 -0.45006 
0.375777 -0.109228 -0.450067 
0.449601 0.218746 -0.36907 
0.436448 0.254662 -0.460434 
-0.429979 -0.452541 -0.246014 
-0.19607 -0.154962 -0.363738 
-0.240789 0.00421868 -0.356254 
-0.263526 0.0932746 -0.410898 
-0.346681 0.143325 -0.368154 
-0.174668 -0.446524 -0.4117 
-0.12332 -0.0542645 -0.391516 
-0.222804 0.0492459 -0.244323 
-0.0560462 0.13148 -0.448942 
-0.365612 0.381506 -0.413854 
0.0746015 -0.460056 -0.352335 
0.445079 -0.343858 -0.108028 
-0.199035 -0.225785 -0.450016 
0.015213 0.0479563 -0.450601 
0.0705862 0.398234 -0.414762 
0.255594 -0.44402 -0.254654 
0.148266 -0.327418 -0.400693 
0.11279 0.0759724 -0.274689 
0.266616 0.172612 -0.436903 
0.140735 0.45009 -0.450048 
0.350536 -0.308901 -0.399023 
0.449921 -0.104286 -0.383169 
0.386098 0.143437 -0.35194 
0.331056 0.314028 -0.410363 
0.438121 0.370859 -0.378419 
-0.382233 -0.439287 -0.175181 
-0.364693 -0.349953 -0.142742 
-0.295524 -0.0429619 -0.293693 
-0.357693 0.0714849 -0.436864 
-0.450024 0.43615 -0.35104 
-0.292567 -0.428354 -0.35491 
-0.0757211 -0.142859 -0.367467 
-0.240674 0.0339973 -0.147129 
-0.00161353 -0.0278429 -0.388543 
-0.431884 0.25094 -0.458726 
0.0746943 -0.347493 -0.440728 
0.356664 -0.20437 -0.0850326 
0.0559276 -0.122337 -0.362124 
0.0283342 0.0435399 -0.360276 
-0.00472987 0.432514 -0.462807 
0.29648 -0.388236 -0.230657 
0.25644 -0.311915 -0.446346 
0.0300285 0.0686998 -0.269669 
0.255252 0.246474 -0.387062 
0.344402 0.450015 -0.280478 
0.297127 -0.392256 -0.366789 
0.450047 -0.211784 -0.386636 
0.44951 -0.029911 -0.450054 
0.348458 0.215542 -0.410139 
0.402094 0.452032 -0.375613 
-0.461336 -0.451801 -0.13682 
-0.320432 -0.141977 -0.321024 
-0.450938 -0.0271818 -0.322463 
-0.253868 0.198117 -0.396119 
-0.301515 0.449985 -0.388025 
-0.169292 -0.386873 -0.348534 
-0.0801517 -0.199752 -0.450012 
-0.205136 -0.165553 -0.159212 
-0.136782 0.1509 -0.402196 
-0.22648 0.340381 -0.395549 
-0.0463849 -0.283149 -0.451327 
0.274475 -0.32375 -0.0860295 
0.449996 0.0533612 -0.177644 
0.0326174 0.126974 -0.337012 
-0.118056 0.312687 -0.414627 
0.133314 -0.451817 -0.261919 
0.239338 -0.141914 -0.404142 
0.10015 -0.0226665 -0.240778 
0.195857 0.306511 -0.344365 
0.198496 0.386941 -0.39847 
0.450005 -0.444098 -0.330572 
0.3264 -0.171324 -0.370203 
0.253994 -0.0583335 -0.450064 
0.450013 0.0539081 -0.393889 
0.44062 0.409563 -0.302223 
-0.431807 -0.457796 -0.0255686 
-0.23706 -0.175572 -0.27489 
-0.423006 -0.105254 -0.41118 
-0.208974 0.269081 -0.341851 
-0.357649 0.240184 -0.390358 
-0.169944 -0.28874 -0.370462 
0.142173 -0.45 -0.118568 
-0.302414 0.369517 -0.198912 
-0.106933 0.274563 -0.334268 
-0.222745 0.462977 -0.451467 
0.00598509 -0.314999 -0.360073 
0.11374 -0.242547 -0.16533 
-0.187449 -0.0665209 -0.315755 
0.0140585 0.203538 -0.30782 
0.0190673 0.298943 -0.35575 
0.0495149 -0.418328 -0.27802 
0.142307 -0.102051 -0.40463 
0.252634 -0.115688 -0.269007 
0.245667 0.188725 -0.320943 
0.137183 0.449451 -0.350084 
0.384304 -0.230019 -0.313574 
0.350538 -0.0639222 -0.364574 
0.320895 0.0490846 -0.374451 
0.416462 0.299413 -0.310176 
0.446805 0.379891 -0.218291 
-0.301334 -0.437363 -0.126802 
-0.449989 -0.102576 -0.272388 
-0.358569 0.009467 -0.280885 
-0.449922 0.0726215 -0.356346 
-0.414406 0.266116 -0.286016 
-0.281287 -0.300648 -0.447986 
-0.182128 -0.265758 -0.252502 
-0.141673 0.398741 -0.093598 
-0.121394 0.189136 -0.337428 
-0.132052 0.44084 -0.359512 
-0.00657281 -0.421523 -0.365884 
0.0168662 -0.0885204 -0.276529 
0.0337522 -0.208712 -0.450007 
-0.0226457 0.273912 -0.26036 
-0.00203441 0.402166 -0.371837 
0.0608397 -0.440248 -0.177262 
0.104732 -0.0440072 -0.349399 
0.284902 -0.159238 -0.199003 
0.19997 0.135743 -0.277983 
0.245342 0.450001 -0.296647 
0.449998 -0.305884 -0.28332 
0.450028 -0.150247 -0.294448 
0.36595 0.0373367 -0.28596 
0.324959 0.261043 -0.322661 
0.384371 0.429428 -0.207042 
-0.250929 -0.445227 -0.198323 
-0.434208 0.224908 -0.197116 
-0.289452 0.186246 -0.202831 
-0.149304 0.0580353 -0.352322 
-0.361853 0.450018 -0.305968 
-0.220394 -0.341229 -0.271111 
-0.0349151 -0.232373 -0.349468 
0.0182887 -0.26005 -0.269455 
-0.101614 0.110316 -0.253989 
-0.160185 0.348134 -0.332699 
-0.0469856 -0.379426 -0.302728 
-0.20833 -0.0901468 0.0929446 
-0.0353241 0.208251 -0.178606 
-0.059574 0.0988491 -0.340614 
0.107757 0.35224 -0.339834 
0.232392 -0.42852 -0.160001 
0.21972 -0.199517 -0.31664 
0.289867 -0.101578 -0.138684 
0.153495 0.221318 -0.302621 
0.18842 0.361579 -0.271064 
0.403509 -0.393945 -0.257636 
0.440345 -0.223658 -0.22726 
0.445279 -0.0211022 -0.327922 
0.301486 0.113575 -0.300543 
0.412837 0.401017 -0.132469 
-0.254069 -0.335936 -0.181495 
-0.433008 -0.32035 -0.314367 
-0.441108 0.345561 -0.133805 
-0.344251 0.326124 -0.0756881 
-0.448457 0.410789 -0.034815 
-0.140976 -0.418892 -0.279815 
-0.0499408 0.140209 -0.0897349 
-0.255981 -0.171438 -0.073334 
-0.178713 0.174087 -0.209931 
-0.158537 0.340526 -0.226545 
-0.0709393 -0.386563 -0.220886 
-0.14195 -0.139814 -0.0490707 
-0.117099 -0.0150702 -0.239826 
-0.0164044 0.108494 -0.208603 
0.0309489 0.447327 -0.286654 
0.295515 -0.331553 -0.183539 
0.254077 -0.306167 -0.356271 
0.349932 -0.0432059 -0.0937364 
0.144521 0.276793 -0.238964 
0.212805 0.388526 -0.163136 
0.355619 -0.450011 -0.186429 
0.44971 -0.198262 -0.124386 
0.344217 0.125965 -0.0309188 
0.447563 0.15287 -0.187297 
0.423411 0.367905 -0.0524208 
-0.326661 -0.325741 -0.312989 
-0.127656 -0.198543 -0.302645 
-0.328934 -0.0124677 -0.174949 
-0.223606 0.189138 -0.283612 
-0.419552 0.448509 -0.224265 
-0.254603 -0.431078 -0.290014 
0.133304 -0.346008 -0.234366 
-0.307413 0.253691 -0.147442 
-0.244679 0.298819 -0.220347 
-0.146976 0.4422 -0.257398 
0.00285516 -0.376108 -0.18672 
0.450019 -0.392051 -0.0205481 
0.0753832 0.442623 -0.194771 
-0.075366 0.405794 -0.329561 
-0.042324 0.449404 -0.23044 
0.357261 -0.386784 -0.111858 
0.371667 -0.0969155 -0.178469 
0.183976 -0.0223028 -0.294169 
0.216102 0.202752 -0.215681 
0.0948007 0.245328 -0.371376 
0.350591 -0.309239 -0.262792 
0.350618 -0.150042 -0.263953 
0.449981 0.0908151 -0.295125 
0.450016 0.209685 -0.269506 
0.404294 0.454195 -0.039099 
-0.342448 -0.394871 -0.023275 
-0.148376 -0.343435 -0.199333 
-0.435403 -0.113875 -0.187877 
-0.45 0.0991506 -0.199867 
-0.338077 0.201461 -0.287215 
-0.15093 -0.44545 -0.197897 
-0.0829168 -0.286276 -0.280267 
-0.225494 0.448392 -0.322851 
-0.282148 0.309958 -0.2906 
-0.226692 0.434379 -0.198245 
0.0530414 -0.401832 -0.09839 
-0.11781 0.449999 0.103013 
0.0367312 0.184358 -0.113515 
-0.0723422 0.310134 -0.213882 
0.0107182 0.367174 -0.226661 
0.267629 -0.42138 -0.0635733 
0.0326473 -0.0954928 -0.0376343 
0.14349 -0.0429366 -0.160935 
0.284977 0.177378 -0.160066 
0.0495681 0.260073 -0.193433 
0.390209 -0.290372 -0.172253 
0.450002 -0.12899 -0.196506 
0.3258 -0.0529935 -0.268315 
0.449733 0.283014 -0.201518 
0.301693 0.413939 -0.109449 
-0.287422 -0.348727 -0.0811705 
-0.430851 0.00294897 -0.225348 
-0.393763 -0.276185 -0.11156 
-0.4296 0.14241 -0.28768 
-0.450006 0.450018 -0.126778 
-0.114218 -0.435367 -0.105563 
-0.125548 -0.325719 -0.0971308 
-0.284047 0.0880697 -0.3132 
-0.135744 0.275014 -0.134226 
-0.240496 0.389414 -0.116491 
-0.0122574 -0.418601 -0.0248681 
-0.410844 -0.181711 -0.336724 
-0.00217399 -0.00095295 -0.23027 
-0.0384398 0.295138 -0.123224 
-0.00873065 0.444523 -0.143252 
0.145479 -0.374014 -0.0452269 
0.447417 0.00423119 0.00382365 
0.0742132 -0.0263243 -0.0973256 
0.304021 0.333204 -0.245018 
0.281782 0.449232 -0.202533 
0.373729 -0.449955 -0.0494408 
0.429467 -0.0504468 0.0720599 
0.241023 -0.0526147 -0.351102 
0.347387 0.25772 -0.210632 
0.438214 0.449534 0.0481259 
-0.351219 -0.199091 -0.0685941 
-0.387885 -0.295238 -0.223149 
-0.405917 0.0974208 -0.125219 
-0.38419 0.31207 -0.202433 
-0.450007 0.359541 -0.286807 
-0.169429 -0.439135 0.016191 
-0.0707832 -0.126595 -0.247123 
-0.222444 0.295617 -0.115377 
-0.101624 0.392709 -0.180801 
-0.0721832 0.437928 -0.0625043 
-0.0858872 -0.450488 0.00411474 
0.0797212 -0.182939 -0.286157 
-0.0766208 0.0630788 -0.147523 
0.0386918 0.25205 -0.0589858 
0.0107488 0.42227 -0.0750294 
0.161272 -0.345169 -0.123994 
0.179596 -0.190454 -0.234742 
0.110324 0.163174 -0.236038 
0.30931 0.219713 -0.0774504 
0.169063 0.450077 -0.228775 
0.450006 -0.419718 -0.172967 
0.320434 -0.259247 -0.00970113 
0.420678 -0.02589 -0.231124 
0.364956 0.164575 -0.242488 
0.414361 0.268699 0.0718733 
-0.42016 -0.379628 0.0243616 
-0.450015 -0.223615 -0.254839 
-0.364946 0.214749 -0.0964467 
-0.448395 0.0494894 -0.0375419 
-0.450025 0.183886 -0.107324 
-0.216273 -0.380135 -0.0334422 
-0.280184 -0.0974655 -0.136097 
-0.334082 -0.106196 -0.224904 
-0.188152 0.35024 -0.0298779 
-0.130053 0.401494 0.00546954 
0.0324039 -0.190763 -0.151284 
-0.15369 -0.251293 -0.157748 
0.219764 0.116375 -0.126807 
0.0903239 0.332994 -0.110482 
-0.0201188 0.439894 0.0176965 
0.0902405 -0.219156 -0.0616602 
0.455661 -0.0641809 -0.123726 
0.283095 0.0658174 -0.0559937 
0.177171 0.223645 -0.135609 
0.100854 0.330814 0.0281977 
0.396479 -0.087209 -0.0357608 
0.450003 -0.266792 -0.0444677 
0.360208 0.0120879 -0.161101 
0.422472 0.11139 -0.0998416 
0.321169 0.324566 -0.145558 
-0.423252 -0.193441 -0.164977 
-0.450005 -0.223262 -0.0672603 
-0.402449 -0.0138936 -0.129153 
-0.450001 0.276235 0.0275026 
-0.339946 0.450008 -0.152956 
-0.234297 -0.301049 0.0363303 
-0.26913 -0.264724 -0.0397741 
-0.329165 0.0667342 -0.078702 
-0.122184 0.217846 -0.065689 
-0.123956 0.187891 0.0014627 
0.0270373 -0.309325 -0.0495243 
-0.115081 -0.103587 -0.138335 
0.107538 0.113754 -0.111844 
-0.158972 0.0995129 -0.142987 
0.0461981 0.400023 0.0808545 
0.0373593 -0.289176 -0.156034 
0.281836 -0.0709982 -0.0362503 
0.263188 0.0263898 -0.126036 
0.182031 0.286529 -0.0609269 
0.11222 0.349519 -0.198509 
0.322466 -0.343432 0.0442144 
0.257942 -0.180891 -0.092677 
0.418966 0.191759 -0.0401395 
0.400786 0.243217 -0.123931 
0.436137 0.284345 -0.0368475 
-0.336025 -0.334493 0.0553224 
-0.339674 -0.239207 -0.296302 
-0.451489 -0.0779635 -0.0694627 
-0.45 0.117771 0.0634648 
-0.272611 0.369614 -0.0211381 
-0.0641782 -0.187739 -0.18501 
-0.177151 -0.232491 -0.0623778 
-0.261775 -0.0252842 -0.0693836 
-0.280881 0.223981 -0.0386802 
-0.207546 0.416553 0.0499147 
0.200283 -0.0641086 -0.111008 
-0.00148583 -0.086598 -0.178256 
-0.1355 -0.0280818 0.063905 
-0.0312275 0.247224 0.00237519 
-0.0771484 0.343218 0.0525426 
0.313886 -0.441532 0.0474523 
0.330963 -0.217323 0.07473 
0.173079 0.0358467 -0.140954 
0.263309 0.281903 -0.0274365 
0.238041 0.450001 -0.0450362 
0.449991 -0.170044 -0.0191895 
0.31784 0.35439 -0.0385767 
0.450003 0.0889032 -0.00637326 
0.435473 0.16656 0.0552126 
0.374193 0.359209 0.054417 
-0.400946 -0.376766 0.115735 
-0.413663 -0.262577 0.0171966 
-0.192265 -0.0609693 -0.119601 
-0.45 0.279567 -0.0748443 
-0.384408 0.350243 0.0126623 
-0.206396 -0.391059 0.0665467 
-0.286665 -0.0501552 0.0297762 
-0.0434452 -0.0243722 -0.112168 
-0.274668 0.132149 -0.128639 
-0.287337 0.392393 0.100824 
0.18741 -0.452678 -0.0147177 
0.114651 -0.140203 -0.173301 
0.027209 0.0563966 -0.12959 
-0.0856432 0.107029 0.0334072 
-0.0420421 0.4007 0.117805 
0.312312 -0.421303 0.144668 
0.200248 -0.120489 -0.0194855 
0.102607 0.194222 -0.0499312 
0.260453 0.171492 0.105369 
0.152056 0.415954 -0.0882535 
0.411612 -0.450014 0.0512965 
0.337278 -0.158909 0.00194104 
-0.217414 0.0993419 -0.0703772 
0.351395 0.222774 0.0267273 
0.322809 0.44858 0.0224185 
-0.441708 -0.449881 0.118921 
-0.276949 0.0460477 0.0040342 
-0.38442 -0.0162692 -0.0204593 
-0.410444 0.144375 -0.0244391 
-0.45 0.413818 0.0651232 
-0.293682 -0.445711 0.0415915 
-0.236668 -0.15644 0.0236507 
-0.17775 0.0347175 -0.00144856 
-0.321524 0.127067 0.0108453 
-0.390685 0.40317 0.151782 
0.234396 -0.235761 0.0879955 
-0.0462095 -0.143333 -0.0777081 
-0.092967 0.0581213 -0.0490242 
0.0198481 0.340703 -0.0247107 
0.0119059 0.303519 0.0724862 
0.193312 -0.250573 -0.0971172 
0.209474 -0.277981 -0.00219475 
0.182531 -0.00299832 -0.0455502 
0.189255 0.171938 -0.0349785 
0.0871241 0.425575 -0.0117098 
0.420165 -0.349267 0.0647499 
0.449365 -0.148229 0.0783993 
0.343686 0.00544163 -0.00820722 
0.267703 0.168123 0.0180472 
0.455613 0.351861 0.0910812 
-0.313986 -0.29936 0.120575 
-0.195108 -0.0662452 -0.00709653 
-0.429706 -0.0197381 0.0784529 
-0.365641 0.222754 0.0186925 
-0.354592 0.449069 -0.0540432 
-0.168606 -0.238595 0.0318384 
-0.185069 -0.186353 0.10877 
-0.0886471 -0.0385974 -0.0239948 
-0.301934 0.299163 0.046101 
-0.208414 0.240218 0.0291779 
-0.0431235 -0.11826 0.0147753 
-0.0415954 -0.241116 -0.121403 
0.0139306 0.00752125 -0.0367313 
0.232164 -0.166975 0.0299555 
0.011999 0.448229 0.187776 
0.215492 -0.368542 0.038064 
0.444236 -0.291858 0.128653 
0.30124 0.0626373 0.0560687 
0.183678 0.249747 0.041565 
0.186315 0.372578 -0.00263911 
0.402539 -0.409775 0.142388 
0.449994 -0.206533 0.159631 
0.321379 -0.0695177 0.0587396 
0.399002 0.0755128 0.0785905 
0.238276 0.427638 0.0698091 
VERTICES 500 1000
1 0
1 1
1 2
1 3
1 4
1 5
1 6
1 7
1 8
1 9
1 10
1 11
1 12
1 13
1 14
1 15
1 16
1 17
1 18
1 19
1 20
1 21
1 22
1 23
1 24
1 25
1 26
1 27
1 28
1 29
1 30
1 31
1 32
1 33
1 34
1 35
1 36
1 37
1 38
1 39
1 40
1 41
1 42
1 43
1 44
1 45
1 46
1 47
1 48
1 49
1 50
1 51
1 52
1 53
1 54
1 55
1 56
1 57
1 58
1 59
1 60
1 61
1 62
1 63
1 64
1 65
1 66
1 67
1 68
1 69
1 70
1 71
1 72
1 73
1 74
1 75
1 76
1 77
1 78
1 79
1 80
1 81
1 82
1 83
1 84
1 85
1 86
1 87
1 88
1 89
1 90
1 91
1 92
1 93
1 94
1 95
1 96
1 97
1 98
1 99
1 100
1 101
1 102
1 103
1 104
1 105
1 106
1 107
1 108
1 109
1 110
1 111
1 112
1 113
1 114
1 115
1 116
1 117
1 118
1 119
1 120
1 121
1 122
1 123
1 124
1 125
1 126
1 127
1 128
1 129
1 130
1 131
1 132
1 133
1 134
1 135
1 136
1 137
1 138
1 139
1 140
1 141
1 142
1 143
1 144
1 145
1 146
1 147
1 148
1 149
1 150
1 151
1 152
1 153
1 154
1 155
1 156
1 157
1 158
1 159
1 160
1 161
1 162
1 163
1 164
1 165
1 166
1 167
1 168
1 169
1 170
1 171
1 172
1 173
1 174
1 175
1 176
1 177
1 178
1 179
1 180
1 181
1 182
1 183
1 184
1 185
1 186
1 187
1 188
1 189
1 190
1 191
1 192
1 193
1 194
1 195
1 196
1 197
1 198
1 199
1 200
1 201
1 202
1 203
1 204
1 205
1 206
1 207
1 208
1 209
1 210
1 211
1 212
1 213
1 214
1 215
1 216
1 217
1 218
1 219
1 220
1 221
1 222
1 223
1 224
1 225
1 226
1 227
1 228
1 229
1 230
1 231
1 232
1 233
1 234
1 235
1 236
1 237
1 238
1 239
1 240
1 241
1 242
1 243
1 244
1 245
1 246
1 247
1 248
1 249
1 250
1 251
1 252
1 253
1 254
1 255
1 256
1 257
1 258
1 259
1 260
1 261
1 262
1 263
1 264
1 265
1 266
1 267
1 268
1 269
1 270
1 271
1 272
1 273
1 274
1 275
1 276
1 277
1 278
1 279
1 280
1 281
1 282
1 283
1 284
1 285
1 286
1 287
1 288
1 289
1 290
1 291
1 292
1 293
1 294
1 295
1 296
1 297
1 298
1 299
1 300
1 301
1 302
1 303
1 304
1 305
1 306
1 307
1 308
1 309
1 310
1 311
1 312
1 313
1 314
1 315
1 316
1 317
1 318
1 319
1 320
1 321
1 322
1 323
1 324
1 325
1 326
1 327
1 328
1 329
1 330
1 331
1 332
1 333
1 334
1 335
1 336
1 337
1 338
1 339
1 340
1 341
1 342
1 343
1 344
1 345
1 346
1 347
1 348
1 349
1 350
1 351
1 352
1 353
1 354
1 355
1 356
1 357
1 358
1 359
1 360
1 361
1 362
1 363
1 364
1 365
1 366
1 367
1 368
1 369
1 370
1 371
1 372
1 373
1 374
1 375
1 376
1 377
1 378
1 379
1 380
1 381
1 382
1 383
1 384
1 385
1 386
1 387
1 388
1 389
1 390
1 391
1 392
1 393
1 394
1 395
1 396
1 397
1 398
1 399
1 400
1 401
1 402
1 403
1 404
1 405
1 406
1 407
1 408
1 409
1 410
1 411
1 412
1 413
1 414
1 415
1 416
1 417
1 418
1 419
1 420
1 421
1 422
1 423
1 424
1 425
1 426
1 427
1 428
1 429
1 430
1 431
1 432
1 433
1 434
1 435
1 436
1 437
1 438
1 439
1 440
1 441
1 442
1 443
1 444
1 445
1 446
1 447
1 448
1 449
1 450
1 451
1 452
1 453
1 454
1 455
1 456
1 457
1 458
1 459
1 460
1 461
1 462
1 463
1 464
1 465
1 466
1 467
1 468
1 469
1 470
1 471
1 472
1 473
1 474
1 475
1 476
1 477
1 478
1 479
1 480
1 481
1 482
1 483
1 484
1 485
1 486
1 487
1 488
1 489
1 490
1 491
1 492
1 493
1 494
1 495
1 496
1 497
1 498
1 499
POINT_DATA 500
SCALARS id int 1
LOOKUP_TABLE default
0
1
2
3
4
5
6
7
8
9
10
11
12
13
14
15
16
17
18
19
20
21
22
23
24
25
26
27
28
29
30
31
32
33
34
35
36
37
38
39
40
41
42
43
44
45
46
47
48
49
50
51
52
53
54
55
56
57
58
59
60
61
62
63
64
65
66
67
68
69
70
71
72
73
74
75
76
77
78
79
80
81
82
83
84
85
86
87
88
89
90
91
92
93
94
95
96
97
98
99
100
101
102
103
104
105
106
107
108
109
110
111
112
113
114
115
116
117
118
119
120
121
122
123
124
125
126
127
128
129
130
131
132
133
134
135
136
137
138
139
140
141
142
143
144
145
146
147
148
149
150
151
152
153
154
155
156
157
158
159
160
161
162
163
164
165
166
167
168
169
170
171
172
173
174
175
176
177
178
179
180
181
182
183
184
185
186
187
188
189
190
191
192
193
194
195
196
197
198
199
200
201
202
203
204
205
206
207
208
209
210
211
212
213
214
215
216
217
218
219
220
221
222
223
224
225
226
227
228
229
230
231
232
233
234
235
236
237
238
239
240
241
242
243
244
245
246
247
248
249
250
251
252
253
254
255
256
257
258
259
260
261
262
263
264
265
266
267
268
269
270
271
272
273
274
275
276
277
278
279
280
281
282
283
284
285
286
287
288
289
290
291
292
293
294
295
296
297
298
299
300
301
302
303
304
305
306
307
308
309
310
311
312
313
314
315
316
317
318
319
320
321
322
323
324
325
326
327
328
329
330
331
332
333
334
335
336
337
338
339
340
341
342
343
344
345
346
347
348
349
350
351
352
353
354
355
356
357
358
359
360
361
362
363
364
365
366
367
368
369
370
371
372
373
374
375
376
377
378
379
380
381
382
383
384
385
386
387
388
389
390
391
392
393
394
395
396
397
398
399
400
401
402
403
404
405
406
407
408
409
410
411
412
413
414
415
416
417
418
419
420
421
422
423
424
425
426
427
428
429
430
431
432
433
434
435
436
437
438
439
440
441
442
443
444
445
446
447
448
449
450
451
452
453
454
455
456
457
458
459
460
461
462
463
464
465
466
467
468
469
470
471
472
473
474
475
476
477
478
479
480
481
482
483
484
485
486
487
488
489
490
491
492
493
494
495
496
497
498
499
SCALARS type int 1
LOOKUP_TABLE default
0
0
0
0
0
0
0
0
0
0
0
0
0
0
0
0
0
0
0
0
0
0
0
0
0
0
0
0
0
0
0
0
0
0
0
0
0
0
0
0
0
0
0
0
0
0
0
0
0
0
0
0
0
0
0
0
0
0
0
0
0
0
0
0
0
0
0
0
0
0
0
0
0
0
0
0
0
0
0
0
0
0
0
0
0
0
0
0
0
0
0
0
0
0
0
0
0
0
0
0
0
0
0
0
0
0
0
0
0
0
0
0
0
0
0
0
0
0
0
0
0
0
0
0
0
0
0
0
0
0
0
0
0
0
0
0
0
0
0
0
0
0
0
0
0
0
0
0
0
0
0
0
0
0
0
0
0
0
0
0
0
0
0
0
0
0
0
0
0
0
0
0
0
0
0
0
0
0
0
0
0
0
0
0
0
0
0
0
0
0
0
0
0
0
0
0
0
0
0
0
0
0
0
0
0
0
0
0
0
0
0
0
0
0
0
0
0
0
0
0
0
0
0
0
0
0
0
0
0
0
0
0
0
0
0
0
0
0
0
0
0
0
0
0
0
0
0
0
0
0
0
0
0
0
0
0
0
0
0
0
0
0
0
0
0
0
0
0
0
0
0
0
0
0
0
0
0
0
0
0
0
0
0
0
0
0
0
0
0
0
0
0
0
0
0
0
0
0
0
0
0
0
0
0
0
0
0
0
0
0
0
0
0
0
0
0
0
0
0
0
0
0
0
0
0
0
0
0
0
0
0
0
0
0
0
0
0
0
0
0
0
0
0
0
0
0
0
0
0
0
0
0
0
0
0
0
0
0
0
0
0
0
0
0
0
0
0
0
0
0
0
0
0
0
0
0
0
0
0
0
0
0
0
0
0
0
0
0
0
0
0
0
0
0
0
0
0
0
0
0
0
0
0
0
0
0
0
0
0
0
0
0
0
0
0
0
0
0
0
0
0
0
0
0
0
0
0
0
0
0
0
0
0
0
0
0
0
0
0
0
0
0
0
0
0
0
0
0
0
0
0
0
0
0
0
0
0
0
0
0
0
0
0
0
0
0
0
0
0
0
0
0
0
0
0
0
0
0
0
0
0
0
0
0
0
0
0
0
0
0
0
0
0
0
0
0
0
0
0
0
SCALARS damp_viscous double 1
LOOKUP_TABLE default
0
0
0
0
0
0
0
0
0
0
0
0
0
0
0
0
0
0
0
0
0
0
0
0
0
0
0
0
0
0
0
0
0
0
0
0
0
0
0
0
0
0
0
0
0
0
0
0
0
0
0
0
0
0
0
0
0
0
0
0
0
0
0
0
0
0
0
0
0
0
0
0
0
0
0
0
0
0
0
0
0
0
0
0
0
0
0
0
0
0
0
0
0
0
0
0
0
0
0
0
0
0
0
0
0
0
0
0
0
0
0
0
0
0
0
0
0
0
0
0
0
0
0
0
0
0
0
0
0
0
0
0
0
0
0
0
0
0
0
0
0
0
0
0
0
0
0
0
0
0
0
0
0
0
0
0
0
0
0
0
0
0
0
0
0
0
0
0
0
0
0
0
0
0
0
0
0
0
0
0
0
0
0
0
0
0
0
0
0
0
0
0
0
0
0
0
0
0
0
0
0
0
0
0
0
0
0
0
0
0
0
0
0
0
0
0
0
0
0
0
0
0
0
0
0
0
0
0
0
0
0
0
0
0
0
0
0
0
0
0
0
0
0
0
0
0
0
0
0
0
0
0
0
0
0
0
0
0
0
0
0
0
0
0
0
0
0
0
0
0
0
0
0
0
0
0
0
0
0
0
0
0
0
0
0
0
0
0
0
0
0
0
0
0
0
0
0
0
0
0
0
0
0
0
0
0
0
0
0
0
0
0
0
0
0
0
0
0
0
0
0
0
0
0
0
0
0
0
0
0
0
0
0
0
0
0
0
0
0
0
0
0
0
0
0
0
0
0
0
0
0
0
0
0
0
0
0
0
0
0
0
0
0
0
0
0
0
0
0
0
0
0
0
0
0
0
0
0
0
0
0
0
0
0
0
0
0
0
0
0
0
0
0
0
0
0
0
0
0
0
0
0
0
0
0
0
0
0
0
0
0
0
0
0
0
0
0
0
0
0
0
0
0
0
0
0
0
0
0
0
0
0
0
0
0
0
0
0
0
0
0
0
0
0
0
0
0
0
0
0
0
0
0
0
0
0
0
0
0
0
0
0
0
0
0
0
0
0
0
0
0
0
0
0
0
0
0
0
0
0
0
0
0
0
0
0
0
0
0
0
0
0
0
0
0
0
0
0
0
0
SCALARS damp_numerical double 1
LOOKUP_TABLE default
0.5
0.5
0.5
0.5
0.5
0.5
0.5
0.5
0.5
0.5
0.5
0.5
0.5
0.5
0.5
0.5
0.5
0.5
0.5
0.5
0.5
0.5
0.5
0.5
0.5
0.5
0.5
0.5
0.5
0.5
0.5
0.5
0.5
0.5
0.5
0.5
0.5
0.5
0.5
0.5
0.5
0.5
0.5
0.5
0.5
0.5
0.5
0.5
0.5
0.5
0.5
0.5
0.5
0.5
0.5
0.5
0.5
0.5
0.5
0.5
0.5
0.5
0.5
0.5
0.5
0.5
0.5
0.5
0.5
0.5
0.5
0.5
0.5
0.5
0.5
0.5
0.5
0.5
0.5
0.5
0.5
0.5
0.5
0.5
0.5
0.5
0.5
0.5
0.5
0.5
0.5
0.5
0.5
0.5
0.5
0.5
0.5
0.5
0.5
0.5
0.5
0.5
0.5
0.5
0.5
0.5
0.5
0.5
0.5
0.5
0.5
0.5
0.5
0.5
0.5
0.5
0.5
0.5
0.5
0.5
0.5
0.5
0.5
0.5
0.5
0.5
0.5
0.5
0.5
0.5
0.5
0.5
0.5
0.5
0.5
0.5
0.5
0.5
0.5
0.5
0.5
0.5
0.5
0.5
0.5
0.5
0.5
0.5
0.5
0.5
0.5
0.5
0.5
0.5
0.5
0.5
0.5
0.5
0.5
0.5
0.5
0.5
0.5
0.5
0.5
0.5
0.5
0.5
0.5
0.5
0.5
0.5
0.5
0.5
0.5
0.5
0.5
0.5
0.5
0.5
0.5
0.5
0.5
0.5
0.5
0.5
0.5
0.5
0.5
0.5
0.5
0.5
0.5
0.5
0.5
0.5
0.5
0.5
0.5
0.5
0.5
0.5
0.5
0.5
0.5
0.5
0.5
0.5
0.5
0.5
0.5
0.5
0.5
0.5
0.5
0.5
0.5
0.5
0.5
0.5
0.5
0.5
0.5
0.5
0.5
0.5
0.5
0.5
0.5
0.5
0.5
0.5
0.5
0.5
0.5
0.5
0.5
0.5
0.5
0.5
0.5
0.5
0.5
0.5
0.5
0.5
0.5
0.5
0.5
0.5
0.5
0.5
0.5
0.5
0.5
0.5
0.5
0.5
0.5
0.5
0.5
0.5
0.5
0.5
0.5
0.5
0.5
0.5
0.5
0.5
0.5
0.5
0.5
0.5
0.5
0.5
0.5
0.5
0.5
0.5
0.5
0.5
0.5
0.5
0.5
0.5
0.5
0.5
0.5
0.5
0.5
0.5
0.5
0.5
0.5
0.5
0.5
0.5
0.5
0.5
0.5
0.5
0.5
0.5
0.5
0.5
0.5
0.5
0.5
0.5
0.5
0.5
0.5
0.5
0.5
0.5
0.5
0.5
0.5
0.5
0.5
0.5
0.5
0.5
0.5
0.5
0.5
0.5
0.5
0.5
0.5
0.5
0.5
0.5
0.5
0.5
0.5
0.5
0.5
0.5
0.5
0.5
0.5
0.5
0.5
0.5
0.5
0.5
0.5
0.5
0.5
0.5
0.5
0.5
0.5
0.5
0.5
0.5
0.5
0.5
0.5
0.5
0.5
0.5
0.5
0.5
0.5
0.5
0.5
0.5
0.5
0.5
0.5
0.5
0.5
0.5
0.5
0.5
0.5
0.5
0.5
0.5
0.5
0.5
0.5
0.5
0.5
0.5
0.5
0.5
0.5
0.5
0.5
0.5
0.5
0.5
0.5
0.5
0.5
0.5
0.5
0.5
0.5
0.5
0.5
0.5
0.5
0.5
0.5
0.5
0.5
0.5
0.5
0.5
0.5
0.5
0.5
0.5
0.5
0.5
0.5
0.5
0.5
0.5
0.5
0.5
0.5
0.5
0.5
0.5
0.5
0.5
0.5
0.5
0.5
0.5
0.5
0.5
0.5
0.5
0.5
0.5
0.5
0.5
0.5
0.5
0.5
0.5
0.5
0.5
0.5
0.5
0.5
0.5
0.5
0.5
0.5
0.5
0.5
0.5
0.5
0.5
0.5
0.5
0.5
0.5
0.5
0.5
0.5
0.5
0.5
0.5
0.5
0.5
0.5
0.5
0.5
0.5
0.5
0.5
0.5
0.5
0.5
0.5
0.5
0.5
0.5
0.5
0.5
0.5
0.5
0.5
0.5
0.5
0.5
0.5
0.5
0.5
0.5
0.5
SCALARS quat double 4
LOOKUP_TABLE default
0.770232 -0.00101971 -0.0691623 0.634002 
0.79213 0.101289 0.601888 0.00107679 
0.989829 0.0773996 -0.0448638 -0.110613 
-0.367798 -0.502845 -0.530555 -0.574789 
0.126346 0.533686 -0.539476 0.638891 
0.799437 -0.335278 -0.145579 0.476754 
0.342717 -0.77374 -0.138001 0.514613 
0.887132 0.0368247 0.380869 0.25803 
-0.0979274 0.441762 0.891436 -0.0244567 
0.043823 0.0947972 0.0344917 0.993933 
0.854672 0.164799 -0.0584165 0.48884 
0.0620428 -0.931095 -0.0723193 -0.352112 
0.182726 0.433183 -0.0714321 0.879694 
0.607285 0.694469 0.3718 -0.103353 
0.321161 0.82913 -0.207899 0.407647 
0.991309 0.0944307 -0.0681015 0.0612534 
0.716121 0.0532612 -0.0091799 0.695881 
0.993452 0.0295706 -0.0389699 0.103252 
0.978146 0.123967 -0.109348 0.126117 
-0.722637 0.228227 0.64726 0.082232 
0.823988 0.198792 0.483607 -0.218289 
-0.259434 0.891498 -0.221114 0.298384 
0.809768 -0.246651 -0.440445 -0.299078 
0.498333 0.754169 -0.41518 -0.102563 
0.984788 0.0871828 -0.0944094 0.116952 
0.816093 0.159262 -0.212057 0.513479 
-0.725708 0.559122 -0.380197 0.127203 
0.969199 0.118774 -0.18989 -0.102405 
0.860038 -0.217879 -0.422146 0.186165 
-0.160873 0.380492 -0.331213 0.848318 
0.651089 0.478455 0.479991 0.34172 
-0.136426 -0.604775 -0.536261 -0.572764 
0.264466 0.00470506 -0.908167 0.324451 
0.0812862 0.116725 0.0848139 0.986192 
0.533903 0.757605 0.145601 -0.346095 
0.52622 -0.421876 -0.0156708 0.738152 
-0.191796 0.530534 -0.425512 0.707593 
0.2792 0.233834 0.235746 0.900996 
0.744334 -0.620753 -0.217999 0.114494 
0.584052 0.606708 -0.140471 -0.520632 
0.924315 0.157216 -0.189483 0.291583 
0.692878 0.187386 -0.0640643 0.693327 
0.98555 -0.131172 -0.103494 -0.027825 
0.00105711 0.838016 0.517949 -0.171631 
0.807457 -0.520996 -0.20244 -0.188665 
0.263836 0.273285 -0.651703 0.656498 
0.547819 -0.155809 0.119241 -0.813265 
-0.955843 0.206201 -0.161922 0.132767 
0.360736 0.695441 -0.54221 0.30371 
-0.867088 0.481101 0.0681188 -0.109821 
0.906832 0.349108 -0.18861 -0.142145 
-0.240945 0.454262 0.825052 -0.234266 
0.721415 0.0625038 0.616794 -0.308575 
-0.617404 0.441875 -0.650527 0.0193238 
-0.467048 0.556062 0.394038 -0.563378 
-0.352863 0.585333 0.715868 -0.142848 
-0.16517 0.206506 0.913059 -0.31048 
0.0365762 -0.0494527 -0.890384 -0.451036 
-0.182523 0.115458 0.719105 -0.660487 
0.334246 -0.924184 -0.149641 0.108494 
-0.405843 0.305584 0.695623 -0.507956 
-0.884553 -0.107291 0.0773042 0.447301 
-0.299079 -0.708181 0.136163 0.624893 
0.158685 0.164623 0.961756 0.150807 
-0.0776443 0.0373478 0.992987 -0.0809502 
0.898398 0.290399 -0.318648 -0.0837446 
-0.0143321 -0.961954 -0.184074 0.201387 
0.957436 -0.17632 -0.151755 0.170877 
0.892325 0.0521288 0.400727 -0.201137 
-0.961807 0.0646779 -0.00776994 -0.265865 
0.684925 -0.637888 -0.206952 0.284865 
-0.632241 -0.648302 -0.395264 -0.154084 
0.241932 0.376109 -0.00769999 -0.8944 
-0.64614 0.667797 -0.332017 -0.162223 
0.953616 -0.20931 0.00935414 -0.216144 
0.953187 0.0834771 -0.0797713 -0.279468 
0.634869 -0.0654618 -0.66276 0.39167 
0.886081 -0.335317 0.319071 -0.0248301 
-0.694525 -0.217942 -0.0107944 0.68558 
-0.590445 0.341348 -0.0588389 -0.728968 
0.98639 0.00977084 0.159267 0.0396778 
-0.244168 0.907585 0.00658438 0.341508 
0.740383 -0.0305065 0.670252 -0.0407979 
-0.236184 0.843837 -0.279492 0.39248 
0.937822 -0.303262 0.156639 -0.0631324 
0.784165 -0.54989 -0.268097 0.104072 
-0.0717469 -0.459771 -0.0930382 -0.880231 
0.734334 0.380923 0.0482925 -0.55975 
0.332244 0.927478 0.0609806 -0.160252 
-0.263844 0.575765 -0.698043 0.334092 
0.814303 -0.348491 0.41613 -0.205669 
-0.832042 0.341379 -0.411775 0.146999 
0.869426 -0.0343698 -0.435245 0.231253 
0.758792 -0.503511 0.406045 0.0764087 
0.791881 0.0484616 0.333948 -0.508974 
0.280011 -0.579832 -0.526182 -0.555447 
0.199276 -0.775627 0.556822 0.220548 
0.35597 -0.0215625 -0.895175 0.26736 
-0.55866 0.606439 0.293632 -0.483643 
0.978892 -0.157246 -0.0327247 -0.126385 
0.830897 -0.15213 -0.0821219 -0.528888 
0.443565 0.442609 0.752463 0.202849 
-0.196581 0.430336 -0.880885 0.0144269 
-0.531791 -0.501322 -0.674369 0.105361 
-0.202502 -0.0829076 -0.538474 0.813735 
0.864467 0.252262 0.151927 0.407406 
-0.870894 0.365993 0.262201 -0.197086 
0.530063 0.675391 0.421364 0.292119 
0.886521 0.280866 -0.130189 -0.343868 
-0.0774545 0.248425 -0.949578 0.174894 
-0.0677748 -0.545184 -0.646734 0.529072 
-0.507559 -0.176075 0.777611 0.326653 
-0.0883788 -0.228758 0.11086 -0.963104 
0.853704 -0.240991 0.392506 0.243006 
-0.289919 0.033522 0.0229413 0.956189 
0.903633 -0.358177 0.209381 -0.106379 
0.212075 -0.734189 0.598948 0.239273 
0.379903 -0.0860817 -0.457469 0.799366 
0.851819 0.010418 0.181016 0.491457 
0.183448 0.13031 -0.808907 0.543171 
0.0402285 0.372902 0.303025 -0.876072 
-0.153475 -0.296443 -0.789462 0.515089 
0.315834 -0.464065 -0.420566 -0.712753 
-0.899422 -0.254266 -0.251517 0.251252 
0.793169 -0.564022 0.0131524 0.229322 
0.774606 0.324935 -0.511818 -0.180126 
0.456994 0.565944 0.553431 -0.405682 
0.529566 0.271069 0.199405 -0.778665 
-0.410048 0.122716 0.898778 -0.0948679 
0.462817 -0.400144 0.694504 0.378615 
-0.0381694 0.186931 0.944256 -0.268293 
-0.963094 0.0347769 -0.130435 -0.232865 
-0.163075 -0.6314 -0.728098 -0.211222 
0.2457 0.185074 -0.951365 -0.016844 
0.132917 -0.915283 0.23744 0.297005 
0.0778127 -0.156764 0.762606 0.622737 
0.160678 0.686125 0.327677 0.629319 
-0.758173 -0.616133 0.0999208 -0.188598 
0.324012 0.921723 -0.160785 -0.139969 
-0.0930327 0.813234 -0.574423 0.00579709 
-0.430049 0.138631 -0.876467 0.166268 
0.329732 -0.414644 0.18409 0.827924 
-0.079129 0.524724 -0.23478 0.814421 
0.942808 -0.26526 -0.183939 0.0831675 
0.00816238 -0.5177 -0.788364 -0.33227 
-0.368591 -0.856397 0.21382 0.291557 
0.547719 -0.628203 0.383818 -0.397553 