# vtk DataFile Version 2.0
Generated by NetDEM
ASCII 
DATASET POLYDATA
POINTS 500 double
-0.421581 -0.392916 -0.46226 
-0.449958 -0.190048 -0.450045 
-0.405119 -0.0124911 -0.462845 
-0.449942 0.107777 -0.450046 
-0.449973 0.349851 -0.450052 
-0.293499 -0.423563 -0.452528 
-0.354691 -0.226239 -0.450011 
-0.188408 -0.00597277 -0.450076 
-0.173362 0.178705 -0.46398 
-0.256145 0.369309 -0.464419 
-0.0462173 -0.403628 -0.463738 
-0.151834 -0.130051 -0.450017 
-0.0522059 -0.0921162 -0.450042 
0.0392235 0.18075 -0.453053 
-0.0280538 0.320264 -0.443942 
0.192322 -0.408123 -0.463975 
0.16572 -0.208352 -0.463281 
0.171292 -0.00249147 -0.463371 
0.162296 0.203678 -0.464436 
0.294131 0.407012 -0.420323 
0.448245 -0.412345 -0.450034 
0.435017 -0.293304 -0.45001 
0.342081 -0.0122101 -0.450052 
0.374338 0.0869455 -0.450016 
0.372365 0.441193 -0.464767 
-0.439227 -0.400788 -0.393571 
-0.449997 -0.278115 -0.402689 
-0.408407 -0.0125531 -0.391046 
-0.442687 0.178701 -0.379507 
-0.449563 0.449977 -0.450052 
-0.35044 -0.390115 -0.393929 
-0.266172 -0.106853 -0.450007 
-0.164806 -0.101134 -0.223818 
-0.304544 0.166017 -0.465069 
-0.153847 0.406615 -0.452904 
-0.0988107 -0.362481 -0.406757 
0.298692 -0.251267 -0.150694 
-0.0518973 -0.0159571 -0.315335 
0.0320612 0.261333 -0.4523 
0.128178 0.303115 -0.44553 
0.195408 -0.423676 -0.39231 
0.167542 -0.211357 -0.391306 
0.176662 0.0250338 -0.3878 
0.195306 0.113577 -0.454632 
0.287359 0.365837 -0.329471 
0.373929 -0.450001 -0.394732 
0.43605 -0.353479 -0.370149 
0.267827 -0.212124 -0.450033 
0.449618 0.15276 -0.45 
0.425515 0.342045 -0.456799 
-0.436687 -0.44079 -0.330731 
-0.276936 -0.210389 -0.389164 
-0.299141 -0.00018787 -0.438976 
-0.285624 0.275951 -0.450011 
-0.448697 0.279636 -0.378916 
-0.195513 -0.378499 -0.452143 
0.199486 -0.354857 -0.309298 
-0.246226 -0.0441873 -0.212642 
-0.169594 0.0793789 -0.451654 
-0.349311 0.334545 -0.342552 
0.04986 -0.4394 -0.450936 
0.20679 -0.27596 -0.194905 
0.203098 0.0531331 -0.226149 
-0.0380289 0.225542 -0.396852 
0.254041 0.333037 -0.463595 
0.18471 -0.448829 -0.32325 
0.054645 -0.101245 -0.451723 
0.159677 0.0690978 -0.33241 
0.267923 0.0653729 -0.441923 
0.113632 0.13616 -0.393141 
0.28565 -0.449077 -0.450007 
0.372859 -0.209531 -0.45005 
0.375903 -0.109558 -0.450028 
0.449993 0.220327 -0.368593 
0.436754 0.255269 -0.460317 
-0.430333 -0.452369 -0.246135 
-0.194047 -0.153895 -0.36257 
-0.240419 0.00424707 -0.355987 
-0.263589 0.0931742 -0.410821 
-0.347636 0.143428 -0.367172 
-0.174719 -0.446216 -0.405472 
-0.123622 -0.0542593 -0.391195 
-0.223389 0.0494413 -0.243744 
-0.0560609 0.131469 -0.448804 
-0.364776 0.381927 -0.412649 
0.0748517 -0.46008 -0.352406 
0.444879 -0.343434 -0.107086 
-0.199109 -0.225878 -0.450014 
0.0149005 0.0479308 -0.450678 
0.0704472 0.398291 -0.414563 
0.255879 -0.444004 -0.254251 
0.148414 -0.327807 -0.400171 
0.113372 0.0755196 -0.275396 
0.266812 0.172842 -0.43849 
0.141186 0.449992 -0.450025 
0.350528 -0.308845 -0.398829 
0.450008 -0.104026 -0.383144 
0.387144 0.144683 -0.350584 
0.331197 0.313729 -0.41062 
0.438162 0.370659 -0.378223 
-0.38247 -0.439332 -0.17498 
-0.365187 -0.350272 -0.141699 
-0.295215 -0.0425236 -0.292739 
-0.358005 0.0712952 -0.435553 
-0.45001 0.435718 -0.351112 
-0.292315 -0.427954 -0.354137 
-0.0753072 -0.143083 -0.367148 
-0.240438 0.0340325 -0.146423 
-0.00245303 -0.0277979 -0.38864 
-0.432031 0.250507 -0.458693 
0.0728474 -0.343631 -0.439771 
0.356214 -0.204817 -0.0833638 
0.0552116 -0.122366 -0.361722 
0.02727 0.0436688 -0.360156 
-0.00453214 0.432884 -0.462974 
0.29677 -0.388261 -0.229939 
0.25661 -0.311857 -0.446365 
0.0307226 0.0684495 -0.269468 
0.254726 0.245566 -0.386888 
0.344623 0.450017 -0.280056 
0.297196 -0.392412 -0.366516 
0.450042 -0.21164 -0.386559 
0.449698 -0.0296474 -0.450006 
0.34791 0.215107 -0.409766 
0.40215 0.451946 -0.375497 
-0.461043 -0.452135 -0.135844 
-0.320727 -0.142104 -0.316977 
-0.450875 -0.0270958 -0.322254 
-0.253871 0.198027 -0.395961 
-0.301291 0.449999 -0.384811 
-0.168293 -0.386187 -0.346604 
-0.0806046 -0.20047 -0.450007 
-0.204707 -0.165132 -0.158167 
-0.136846 0.150866 -0.402087 
-0.226868 0.339894 -0.395285 
-0.0471013 -0.283529 -0.451525 
0.275491 -0.322764 -0.0847369 
0.450002 0.0534938 -0.176282 
0.0334619 0.126356 -0.336629 
-0.118409 0.312627 -0.414692 
0.13355 -0.451975 -0.261867 
0.238809 -0.141821 -0.404166 
0.101557 -0.0223371 -0.240402 
0.196964 0.305712 -0.344277 
0.198734 0.386558 -0.398393 
0.449986 -0.444033 -0.330084 
0.326089 -0.171667 -0.370211 
0.253387 -0.0583405 -0.450056 
0.450005 0.0536758 -0.393751 
0.440607 0.409426 -0.302155 
-0.431398 -0.457705 -0.0247428 
-0.236223 -0.174866 -0.274364 
-0.422793 -0.105728 -0.410923 
-0.208784 0.2688 -0.341577 
-0.357445 0.240218 -0.390311 
-0.168816 -0.287988 -0.370127 
0.141896 -0.449995 -0.112 
-0.302415 0.369558 -0.197626 
-0.106771 0.274385 -0.334231 
-0.22286 0.462976 -0.451452 
0.00563356 -0.314769 -0.359647 
0.11416 -0.24224 -0.164255 
-0.187095 -0.0661876 -0.314874 
0.0142431 0.203399 -0.307391 
0.0185667 0.298976 -0.355628 
0.049969 -0.418698 -0.277698 
0.141607 -0.101676 -0.404707 
0.252521 -0.115805 -0.268434 
0.244892 0.188238 -0.3217 
0.137313 0.449182 -0.350111 
0.384277 -0.230079 -0.313542 
0.348053 -0.064122 -0.364791 
0.320243 0.0490759 -0.374166 
0.414727 0.300248 -0.30908 
0.44685 0.379528 -0.218135 
-0.305055 -0.438504 -0.121261 
-0.449919 -0.102371 -0.272306 
-0.358446 0.00964056 -0.279873 
-0.45001 0.0723559 -0.356516 
-0.41443 0.266513 -0.285995 
-0.280706 -0.300293 -0.447901 
-0.18152 -0.265032 -0.250883 
-0.141492 0.399152 -0.0928994 
-0.121365 0.189287 -0.337266 
-0.132139 0.440858 -0.35935 
-0.0061753 -0.421667 -0.365306 
0.0170726 -0.0889391 -0.275516 
0.0279074 -0.209712 -0.450007 
-0.0227113 0.273982 -0.259935 
-0.00225067 0.402559 -0.371619 
0.0609249 -0.440083 -0.176835 
0.103182 -0.0453613 -0.348964 
0.284846 -0.159272 -0.198428 
0.200062 0.13529 -0.278431 
0.245654 0.449994 -0.295135 
0.45 -0.305852 -0.283347 
0.450006 -0.14973 -0.294224 
0.366181 0.0368301 -0.286191 
0.324378 0.259362 -0.321857 
0.384434 0.429464 -0.206506 
-0.251474 -0.445051 -0.197494 
-0.435435 0.226185 -0.196957 
-0.289566 0.186467 -0.202084 
-0.149219 0.0581574 -0.352343 
-0.362185 0.449937 -0.305464 
-0.220355 -0.340505 -0.269403 
-0.0350047 -0.232475 -0.347087 
0.0183587 -0.25885 -0.266741 
-0.101474 0.111326 -0.253125 
-0.160425 0.348022 -0.332554 
-0.046715 -0.379561 -0.301875 
-0.207086 -0.0906798 0.0961261 
-0.0345434 0.207938 -0.17844 
-0.0593749 0.0992966 -0.339949 
0.10791 0.353324 -0.338783 
0.231928 -0.429012 -0.159515 
0.219299 -0.198531 -0.316609 
0.289726 -0.101787 -0.138022 
0.153266 0.221216 -0.302163 
0.188568 0.361624 -0.271108 
0.403778 -0.393926 -0.256915 
0.440797 -0.223503 -0.227375 
0.444795 -0.0210791 -0.327545 
0.30166 0.113123 -0.299666 
0.412695 0.401064 -0.132024 
-0.25399 -0.335814 -0.17966 
-0.435189 -0.319137 -0.312705 
-0.441001 0.345294 -0.132957 
-0.34398 0.325972 -0.0751738 
-0.448325 0.411452 -0.0334457 
-0.14093 -0.417831 -0.277576 
-0.0499852 0.14055 -0.0888133 
-0.255948 -0.171226 -0.071706 
-0.17868 0.174261 -0.209051 
-0.158279 0.340183 -0.22641 
-0.0705457 -0.386522 -0.220004 
-0.142159 -0.139784 -0.0478334 
-0.116072 -0.0150768 -0.238672 
-0.0153092 0.108395 -0.208178 
0.030665 0.447277 -0.286044 
0.296051 -0.331333 -0.182982 
0.254024 -0.306059 -0.355587 
0.349952 -0.0440734 -0.092661 
0.145042 0.276831 -0.238562 
0.212779 0.39062 -0.160766 
0.355752 -0.450006 -0.1855 
0.449995 -0.197713 -0.117389 
0.344018 0.126106 -0.0295274 
0.448056 0.152896 -0.186991 
0.423576 0.368309 -0.0517447 
-0.326934 -0.325706 -0.311936 
-0.127666 -0.198278 -0.302264 
-0.328745 -0.0123614 -0.174032 
-0.223594 0.18929 -0.282801 
-0.419126 0.448756 -0.223223 
-0.254056 -0.430341 -0.289143 
0.136644 -0.347165 -0.231905 
-0.307357 0.254081 -0.146728 
-0.244568 0.298953 -0.219789 
-0.146701 0.441992 -0.257065 
0.00355826 -0.376548 -0.185144 
0.450009 -0.391929 -0.019729 
0.0755468 0.442091 -0.194351 
-0.0754052 0.405865 -0.329289 
-0.0421336 0.44909 -0.229686 
0.357279 -0.387165 -0.110801 
0.371681 -0.096811 -0.177981 
0.184395 -0.0221828 -0.294884 
0.216124 0.202457 -0.215371 
0.0944291 0.245557 -0.37103 
0.350736 -0.309272 -0.262534 
0.350399 -0.150205 -0.263793 
0.450001 0.0907669 -0.294217 
0.450027 0.209834 -0.269179 
0.403841 0.45415 -0.0333224 
-0.342581 -0.394791 -0.0218557 
-0.145913 -0.344764 -0.190653 
-0.435465 -0.113536 -0.187736 
-0.44996 0.0986765 -0.199694 
-0.338701 0.201282 -0.286135 
-0.150798 -0.445058 -0.1962 
-0.0827357 -0.28464 -0.276309 
-0.224991 0.448457 -0.320171 
-0.28193 0.309645 -0.290063 
-0.226379 0.434104 -0.197513 
0.0531037 -0.401311 -0.0974402 
-0.117817 0.450002 0.103745 
0.0368651 0.184386 -0.112533 
-0.0720898 0.309865 -0.212869 
0.0120585 0.366682 -0.226168 
0.267623 -0.422027 -0.0633894 
0.0324934 -0.0953329 -0.0364424 
0.143549 -0.0426867 -0.160161 
0.28508 0.177436 -0.159777 
0.0494926 0.260261 -0.193213 
0.39066 -0.289655 -0.171635 
0.449999 -0.130028 -0.192826 
0.32599 -0.0533328 -0.267858 
0.449602 0.282663 -0.200689 
0.301987 0.414044 -0.106891 
-0.287944 -0.348708 -0.080142 
-0.429695 0.00285074 -0.224717 
-0.394084 -0.276712 -0.110102 
-0.42948 0.141772 -0.287549 
-0.450004 0.450004 -0.125691 
-0.116798 -0.436152 -0.102039 
-0.12639 -0.323821 -0.092872 
-0.284083 0.0883166 -0.31308 
-0.135472 0.275054 -0.132644 
-0.240336 0.389298 -0.115376 
-0.0121603 -0.418461 -0.0236528 
-0.410592 -0.181697 -0.335985 
-0.00192197 -0.000975901 -0.23003 
-0.0376328 0.294347 -0.122213 
-0.00868489 0.444535 -0.142464 
0.145679 -0.373804 -0.044047 
0.447486 0.00426093 0.00418091 
0.0745066 -0.0263732 -0.0960576 
0.303429 0.333344 -0.243391 
0.282232 0.449584 -0.201948 
0.373726 -0.450005 -0.0481343 
0.429871 -0.0501016 0.0728081 
0.242299 -0.0525608 -0.350823 
0.347292 0.257636 -0.210094 
0.437683 0.451263 0.0530395 
-0.351206 -0.199801 -0.0671154 
-0.388263 -0.295334 -0.221955 
-0.406076 0.0979269 -0.124948 
-0.384559 0.312821 -0.202339 
-0.450012 0.360088 -0.285733 
-0.169561 -0.438931 0.0173709 
-0.0704361 -0.126814 -0.245357 
-0.222371 0.295486 -0.114012 
-0.101477 0.392365 -0.180097 
-0.072226 0.437926 -0.0616308 
-0.0860532 -0.450315 0.00503635 
0.0800392 -0.182469 -0.28575 
-0.0758846 0.0634349 -0.147008 
0.0387043 0.251899 -0.0577705 
0.010568 0.422331 -0.0740249 
0.161547 -0.344782 -0.122897 
0.179873 -0.190481 -0.234128 
0.110567 0.162495 -0.236464 
0.309172 0.219628 -0.0769548 
0.169208 0.450002 -0.228512 
0.44997 -0.419375 -0.171945 
0.320204 -0.259486 -0.00778485 
0.420512 -0.0261031 -0.230593 
0.365124 0.164536 -0.241969 
0.414409 0.268974 0.0735632 
-0.420362 -0.379578 0.026089 
-0.450025 -0.223709 -0.254295 
-0.364997 0.215692 -0.095406 
-0.4483 0.0499243 -0.0372937 
-0.450037 0.184846 -0.107115 
-0.216712 -0.380097 -0.0322813 
-0.279676 -0.0975366 -0.134976 
-0.333701 -0.105579 -0.223004 
-0.188188 0.350606 -0.0287557 
-0.129697 0.401439 0.00617743 
0.0328554 -0.190297 -0.150541 
-0.153718 -0.251124 -0.155845 
0.219872 0.116328 -0.126458 
0.0906706 0.332847 -0.109718 
-0.0202678 0.439828 0.018644 
0.0905825 -0.218734 -0.0606947 
0.455345 -0.0638491 -0.122984 
0.283472 0.0662482 -0.05491 
0.177586 0.224247 -0.134912 
0.100113 0.330713 0.031438 
0.396296 -0.0875555 -0.0339083 
0.45 -0.266746 -0.0431171 
0.360587 0.0119962 -0.159469 
0.422851 0.112445 -0.099113 
0.321299 0.324137 -0.144194 
-0.423554 -0.193295 -0.16419 
-0.450008 -0.223741 -0.0657403 
-0.402657 -0.0135556 -0.12818 
-0.45 0.276372 0.0292134 
-0.339734 0.450019 -0.15149 
-0.234584 -0.301061 0.0371706 
-0.269548 -0.264766 -0.0390952 
-0.328924 0.0668664 -0.0777069 
-0.122222 0.217905 -0.0640091 
-0.123908 0.188148 0.00350764 
0.0278092 -0.309387 -0.0463422 
-0.115316 -0.10332 -0.136986 
0.107595 0.113712 -0.111513 
-0.158496 0.0997447 -0.142434 
0.0458593 0.400775 0.082872 
0.0379372 -0.289015 -0.15293 
0.281763 -0.071474 -0.0352116 
0.263401 0.0264402 -0.124774 
0.182121 0.286424 -0.0594339 
0.11275 0.349315 -0.198118 
0.322469 -0.343566 0.0462723 
0.258183 -0.181142 -0.0919167 
0.418967 0.191968 -0.0386119 
0.401 0.242835 -0.122882 
0.436212 0.284241 -0.0358884 
-0.336269 -0.334689 0.0574865 
-0.339808 -0.239226 -0.295007 
-0.451548 -0.0776605 -0.0683649 
-0.449996 0.119095 0.0640302 
-0.272679 0.369624 -0.0203129 
-0.0641496 -0.18587 -0.180632 
-0.177318 -0.232542 -0.0604812 
-0.261231 -0.0251525 -0.0685146 
-0.281036 0.224037 -0.0372704 
-0.206948 0.416218 0.0512877 
0.200688 -0.0632957 -0.110623 
-0.0015719 -0.0859472 -0.177268 
-0.13531 -0.0283166 0.0651742 
-0.0309404 0.247173 0.00380445 
-0.0769287 0.343293 0.0534535 
0.314136 -0.4414 0.0485742 
0.330931 -0.217213 0.0766689 
0.173148 0.0361822 -0.141017 
0.263311 0.28167 -0.0263839 
0.238615 0.450001 -0.0413968 
0.449978 -0.170211 -0.0170337 
0.317552 0.354611 -0.0357078 
0.449906 0.0889592 -0.00577016 
0.435417 0.165874 0.0565089 
0.374592 0.359238 0.0551263 
-0.401047 -0.377979 0.118957 
-0.414567 -0.262859 0.0191876 
-0.19336 -0.0614617 -0.115103 
-0.450002 0.279631 -0.0740339 
-0.384452 0.350132 0.0130173 
-0.206567 -0.391086 0.0677307 
-0.285681 -0.0465795 0.0411318 
-0.0435059 -0.0239796 -0.110765 
-0.274478 0.132298 -0.127662 
-0.287397 0.392617 0.103866 
0.187995 -0.452507 -0.0117711 
0.115125 -0.140073 -0.172569 
0.0271856 0.0565558 -0.128476 
-0.0857948 0.106673 0.0342485 
-0.0423891 0.40068 0.120136 
0.312467 -0.421542 0.146327 
0.200303 -0.119964 -0.0186399 
0.102614 0.194009 -0.0492745 
0.260433 0.171496 0.106796 
0.154209 0.415905 -0.0837693 
0.411812 -0.450006 0.0521632 
0.337057 -0.159217 0.00366964 
-0.216989 0.0992941 -0.0697469 
0.352302 0.221944 0.0306481 
0.320579 0.449667 0.0289847 
-0.44159 -0.449813 0.123533 
-0.276829 0.0462925 0.00513078 
-0.384615 -0.0157537 -0.01906 
-0.410691 0.145394 -0.0240905 
-0.449922 0.413946 0.0665104 
-0.293924 -0.445716 0.0429324 
-0.237317 -0.15653 0.0254422 
-0.177643 0.0350273 -0.000812183 
-0.321922 0.12712 0.0114947 
-0.391266 0.403356 0.153809 
0.23456 -0.234382 0.0909371 
-0.0463196 -0.143264 -0.0766358 
-0.0928355 0.0581911 -0.0484912 
0.0198781 0.340261 -0.0226794 
0.0118752 0.303439 0.0740994 
0.193613 -0.250423 -0.095684 
0.209053 -0.277581 1.48028e-05 
0.183083 -0.00229415 -0.0451205 
0.189499 0.171783 -0.034372 
0.0866217 0.425872 -0.0102417 
0.420378 -0.349332 0.0657424 
0.4492 -0.147914 0.0804433 
0.343618 0.00543215 -0.00706728 
0.267584 0.168131 0.0193795 
0.455623 0.351658 0.0935866 
-0.313998 -0.299536 0.122408 
-0.195195 -0.0662364 -0.00566174 
-0.430039 -0.0190603 0.0798389 
-0.36599 0.222792 0.0207689 
-0.353899 0.449983 -0.0499912 
-0.169169 -0.238678 0.0337124 
-0.185339 -0.18718 0.110751 
-0.0886738 -0.038338 -0.0227114 
-0.301087 0.300559 0.0481686 
-0.208872 0.240153 0.0310906 
-0.0431756 -0.117781 0.0169603 
-0.0341246 -0.24028 -0.110542 
0.0145343 0.00730227 -0.0345825 
0.231955 -0.166686 0.0307492 
0.0114964 0.448123 0.190134 
0.215447 -0.368623 0.0401879 
0.44421 -0.291944 0.129836 
0.301507 0.062678 0.0578487 
0.183508 0.249541 0.042037 
0.186337 0.371044 0.000797869 
0.402773 -0.409917 0.143323 
0.449997 -0.20671 0.161318 
0.321258 -0.0697763 0.0597827 
0.398807 0.0767082 0.0831253 
0.235999 0.426082 0.0751525 
VERTICES 500 1000
1 0
1 1
1 2
1 3
1 4
1 5
1 6
1 7
1 8
1 9
1 10
1 11
1 12
1 13
1 14
1 15
1 16
1 17
1 18
1 19
1 20
1 21
1 22
1 23
1 24
1 25
1 26
1 27
1 28
1 29
1 30
1 31
1 32
1 33
1 34
1 35
1 36
1 37
1 38
1 39
1 40
1 41
1 42
1 43
1 44
1 45
1 46
1 47
1 48
1 49
1 50
1 51
1 52
1 53
1 54
1 55
1 56
1 57
1 58
1 59
1 60
1 61
1 62
1 63
1 64
1 65
1 66
1 67
1 68
1 69
1 70
1 71
1 72
1 73
1 74
1 75
1 76
1 77
1 78
1 79
1 80
1 81
1 82
1 83
1 84
1 85
1 86
1 87
1 88
1 89
1 90
1 91
1 92
1 93
1 94
1 95
1 96
1 97
1 98
1 99
1 100
1 101
1 102
1 103
1 104
1 105
1 106
1 107
1 108
1 109
1 110
1 111
1 112
1 113
1 114
1 115
1 116
1 117
1 118
1 119
1 120
1 121
1 122
1 123
1 124
1 125
1 126
1 127
1 128
1 129
1 130
1 131
1 132
1 133
1 134
1 135
1 136
1 137
1 138
1 139
1 140
1 141
1 142
1 143
1 144
1 145
1 146
1 147
1 148
1 149
1 150
1 151
1 152
1 153
1 154
1 155
1 156
1 157
1 158
1 159
1 160
1 161
1 162
1 163
1 164
1 165
1 166
1 167
1 168
1 169
1 170
1 171
1 172
1 173
1 174
1 175
1 176
1 177
1 178
1 179
1 180
1 181
1 182
1 183
1 184
1 185
1 186
1 187
1 188
1 189
1 190
1 191
1 192
1 193
1 194
1 195
1 196
1 197
1 198
1 199
1 200
1 201
1 202
1 203
1 204
1 205
1 206
1 207
1 208
1 209
1 210
1 211
1 212
1 213
1 214
1 215
1 216
1 217
1 218
1 219
1 220
1 221
1 222
1 223
1 224
1 225
1 226
1 227
1 228
1 229
1 230
1 231
1 232
1 233
1 234
1 235
1 236
1 237
1 238
1 239
1 240
1 241
1 242
1 243
1 244
1 245
1 246
1 247
1 248
1 249
1 250
1 251
1 252
1 253
1 254
1 255
1 256
1 257
1 258
1 259
1 260
1 261
1 262
1 263
1 264
1 265
1 266
1 267
1 268
1 269
1 270
1 271
1 272
1 273
1 274
1 275
1 276
1 277
1 278
1 279
1 280
1 281
1 282
1 283
1 284
1 285
1 286
1 287
1 288
1 289
1 290
1 291
1 292
1 293
1 294
1 295
1 296
1 297
1 298
1 299
1 300
1 301
1 302
1 303
1 304
1 305
1 306
1 307
1 308
1 309
1 310
1 311
1 312
1 313
1 314
1 315
1 316
1 317
1 318
1 319
1 320
1 321
1 322
1 323
1 324
1 325
1 326
1 327
1 328
1 329
1 330
1 331
1 332
1 333
1 334
1 335
1 336
1 337
1 338
1 339
1 340
1 341
1 342
1 343
1 344
1 345
1 346
1 347
1 348
1 349
1 350
1 351
1 352
1 353
1 354
1 355
1 356
1 357
1 358
1 359
1 360
1 361
1 362
1 363
1 364
1 365
1 366
1 367
1 368
1 369
1 370
1 371
1 372
1 373
1 374
1 375
1 376
1 377
1 378
1 379
1 380
1 381
1 382
1 383
1 384
1 385
1 386
1 387
1 388
1 389
1 390
1 391
1 392
1 393
1 394
1 395
1 396
1 397
1 398
1 399
1 400
1 401
1 402
1 403
1 404
1 405
1 406
1 407
1 408
1 409
1 410
1 411
1 412
1 413
1 414
1 415
1 416
1 417
1 418
1 419
1 420
1 421
1 422
1 423
1 424
1 425
1 426
1 427
1 428
1 429
1 430
1 431
1 432
1 433
1 434
1 435
1 436
1 437
1 438
1 439
1 440
1 441
1 442
1 443
1 444
1 445
1 446
1 447
1 448
1 449
1 450
1 451
1 452
1 453
1 454
1 455
1 456
1 457
1 458
1 459
1 460
1 461
1 462
1 463
1 464
1 465
1 466
1 467
1 468
1 469
1 470
1 471
1 472
1 473
1 474
1 475
1 476
1 477
1 478
1 479
1 480
1 481
1 482
1 483
1 484
1 485
1 486
1 487
1 488
1 489
1 490
1 491
1 492
1 493
1 494
1 495
1 496
1 497
1 498
1 499
POINT_DATA 500
SCALARS id int 1
LOOKUP_TABLE default
0
1
2
3
4
5
6
7
8
9
10
11
12
13
14
15
16
17
18
19
20
21
22
23
24
25
26
27
28
29
30
31
32
33
34
35
36
37
38
39
40
41
42
43
44
45
46
47
48
49
50
51
52
53
54
55
56
57
58
59
60
61
62
63
64
65
66
67
68
69
70
71
72
73
74
75
76
77
78
79
80
81
82
83
84
85
86
87
88
89
90
91
92
93
94
95
96
97
98
99
100
101
102
103
104
105
106
107
108
109
110
111
112
113
114
115
116
117
118
119
120
121
122
123
124
125
126
127
128
129
130
131
132
133
134
135
136
137
138
139
140
141
142
143
144
145
146
147
148
149
150
151
152
153
154
155
156
157
158
159
160
161
162
163
164
165
166
167
168
169
170
171
172
173
174
175
176
177
178
179
180
181
182
183
184
185
186
187
188
189
190
191
192
193
194
195
196
197
198
199
200
201
202
203
204
205
206
207
208
209
210
211
212
213
214
215
216
217
218
219
220
221
222
223
224
225
226
227
228
229
230
231
232
233
234
235
236
237
238
239
240
241
242
243
244
245
246
247
248
249
250
251
252
253
254
255
256
257
258
259
260
261
262
263
264
265
266
267
268
269
270
271
272
273
274
275
276
277
278
279
280
281
282
283
284
285
286
287
288
289
290
291
292
293
294
295
296
297
298
299
300
301
302
303
304
305
306
307
308
309
310
311
312
313
314
315
316
317
318
319
320
321
322
323
324
325
326
327
328
329
330
331
332
333
334
335
336
337
338
339
340
341
342
343
344
345
346
347
348
349
350
351
352
353
354
355
356
357
358
359
360
361
362
363
364
365
366
367
368
369
370
371
372
373
374
375
376
377
378
379
380
381
382
383
384
385
386
387
388
389
390
391
392
393
394
395
396
397
398
399
400
401
402
403
404
405
406
407
408
409
410
411
412
413
414
415
416
417
418
419
420
421
422
423
424
425
426
427
428
429
430
431
432
433
434
435
436
437
438
439
440
441
442
443
444
445
446
447
448
449
450
451
452
453
454
455
456
457
458
459
460
461
462
463
464
465
466
467
468
469
470
471
472
473
474
475
476
477
478
479
480
481
482
483
484
485
486
487
488
489
490
491
492
493
494
495
496
497
498
499
SCALARS type int 1
LOOKUP_TABLE default
0
0
0
0
0
0
0
0
0
0
0
0
0
0
0
0
0
0
0
0
0
0
0
0
0
0
0
0
0
0
0
0
0
0
0
0
0
0
0
0
0
0
0
0
0
0
0
0
0
0
0
0
0
0
0
0
0
0
0
0
0
0
0
0
0
0
0
0
0
0
0
0
0
0
0
0
0
0
0
0
0
0
0
0
0
0
0
0
0
0
0
0
0
0
0
0
0
0
0
0
0
0
0
0
0
0
0
0
0
0
0
0
0
0
0
0
0
0
0
0
0
0
0
0
0
0
0
0
0
0
0
0
0
0
0
0
0
0
0
0
0
0
0
0
0
0
0
0
0
0
0
0
0
0
0
0
0
0
0
0
0
0
0
0
0
0
0
0
0
0
0
0
0
0
0
0
0
0
0
0
0
0
0
0
0
0
0
0
0
0
0
0
0
0
0
0
0
0
0
0
0
0
0
0
0
0
0
0
0
0
0
0
0
0
0
0
0
0
0
0
0
0
0
0
0
0
0
0
0
0
0
0
0
0
0
0
0
0
0
0
0
0
0
0
0
0
0
0
0
0
0
0
0
0
0
0
0
0
0
0
0
0
0
0
0
0
0
0
0
0
0
0
0
0
0
0
0
0
0
0
0
0
0
0
0
0
0
0
0
0
0
0
0
0
0
0
0
0
0
0
0
0
0
0
0
0
0
0
0
0
0
0
0
0
0
0
0
0
0
0
0
0
0
0
0
0
0
0
0
0
0
0
0
0
0
0
0
0
0
0
0
0
0
0
0
0
0
0
0
0
0
0
0
0
0
0
0
0
0
0
0
0
0
0
0
0
0
0
0
0
0
0
0
0
0
0
0
0
0
0
0
0
0
0
0
0
0
0
0
0
0
0
0
0
0
0
0
0
0
0
0
0
0
0
0
0
0
0
0
0
0
0
0
0
0
0
0
0
0
0
0
0
0
0
0
0
0
0
0
0
0
0
0
0
0
0
0
0
0
0
0
0
0
0
0
0
0
0
0
0
0
0
0
0
0
0
0
0
0
0
0
0
0
0
0
0
0
0
0
0
0
0
0
0
0
0
0
0
0
0
0
0
0
0
0
0
0
0
0
0
0
0
0
0
0
0
0
0
0
0
SCALARS damp_viscous double 1
LOOKUP_TABLE default
0
0
0
0
0
0
0
0
0
0
0
0
0
0
0
0
0
0
0
0
0
0
0
0
0
0
0
0
0
0
0
0
0
0
0
0
0
0
0
0
0
0
0
0
0
0
0
0
0
0
0
0
0
0
0
0
0
0
0
0
0
0
0
0
0
0
0
0
0
0
0
0
0
0
0
0
0
0
0
0
0
0
0
0
0
0
0
0
0
0
0
0
0
0
0
0
0
0
0
0
0
0
0
0
0
0
0
0
0
0
0
0
0
0
0
0
0
0
0
0
0
0
0
0
0
0
0
0
0
0
0
0
0
0
0
0
0
0
0
0
0
0
0
0
0
0
0
0
0
0
0
0
0
0
0
0
0
0
0
0
0
0
0
0
0
0
0
0
0
0
0
0
0
0
0
0
0
0
0
0
0
0
0
0
0
0
0
0
0
0
0
0
0
0
0
0
0
0
0
0
0
0
0
0
0
0
0
0
0
0
0
0
0
0
0
0
0
0
0
0
0
0
0
0
0
0
0
0
0
0
0
0
0
0
0
0
0
0
0
0
0
0
0
0
0
0
0
0
0
0
0
0
0
0
0
0
0
0
0
0
0
0
0
0
0
0
0
0
0
0
0
0
0
0
0
0
0
0
0
0
0
0
0
0
0
0
0
0
0
0
0
0
0
0
0
0
0
0
0
0
0
0
0
0
0
0
0
0
0
0
0
0
0
0
0
0
0
0
0
0
0
0
0
0
0
0
0
0
0
0
0
0
0
0
0
0
0
0
0
0
0
0
0
0
0
0
0
0
0
0
0
0
0
0
0
0
0
0
0
0
0
0
0
0
0
0
0
0
0
0
0
0
0
0
0
0
0
0
0
0
0
0
0
0
0
0
0
0
0
0
0
0
0
0
0
0
0
0
0
0
0
0
0
0
0
0
0
0
0
0
0
0
0
0
0
0
0
0
0
0
0
0
0
0
0
0
0
0
0
0
0
0
0
0
0
0
0
0
0
0
0
0
0
0
0
0
0
0
0
0
0
0
0
0
0
0
0
0
0
0
0
0
0
0
0
0
0
0
0
0
0
0
0
0
0
0
0
0
0
0
0
0
0
0
0
0
0
0
0
0
0
0
0
0
0
0
0
0
0
0
SCALARS damp_numerical double 1
LOOKUP_TABLE default
0.5
0.5
0.5
0.5
0.5
0.5
0.5
0.5
0.5
0.5
0.5
0.5
0.5
0.5
0.5
0.5
0.5
0.5
0.5
0.5
0.5
0.5
0.5
0.5
0.5
0.5
0.5
0.5
0.5
0.5
0.5
0.5
0.5
0.5
0.5
0.5
0.5
0.5
0.5
0.5
0.5
0.5
0.5
0.5
0.5
0.5
0.5
0.5
0.5
0.5
0.5
0.5
0.5
0.5
0.5
0.5
0.5
0.5
0.5
0.5
0.5
0.5
0.5
0.5
0.5
0.5
0.5
0.5
0.5
0.5
0.5
0.5
0.5
0.5
0.5
0.5
0.5
0.5
0.5
0.5
0.5
0.5
0.5
0.5
0.5
0.5
0.5
0.5
0.5
0.5
0.5
0.5
0.5
0.5
0.5
0.5
0.5
0.5
0.5
0.5
0.5
0.5
0.5
0.5
0.5
0.5
0.5
0.5
0.5
0.5
0.5
0.5
0.5
0.5
0.5
0.5
0.5
0.5
0.5
0.5
0.5
0.5
0.5
0.5
0.5
0.5
0.5
0.5
0.5
0.5
0.5
0.5
0.5
0.5
0.5
0.5
0.5
0.5
0.5
0.5
0.5
0.5
0.5
0.5
0.5
0.5
0.5
0.5
0.5
0.5
0.5
0.5
0.5
0.5
0.5
0.5
0.5
0.5
0.5
0.5
0.5
0.5
0.5
0.5
0.5
0.5
0.5
0.5
0.5
0.5
0.5
0.5
0.5
0.5
0.5
0.5
0.5
0.5
0.5
0.5
0.5
0.5
0.5
0.5
0.5
0.5
0.5
0.5
0.5
0.5
0.5
0.5
0.5
0.5
0.5
0.5
0.5
0.5
0.5
0.5
0.5
0.5
0.5
0.5
0.5
0.5
0.5
0.5
0.5
0.5
0.5
0.5
0.5
0.5
0.5
0.5
0.5
0.5
0.5
0.5
0.5
0.5
0.5
0.5
0.5
0.5
0.5
0.5
0.5
0.5
0.5
0.5
0.5
0.5
0.5
0.5
0.5
0.5
0.5
0.5
0.5
0.5
0.5
0.5
0.5
0.5
0.5
0.5
0.5
0.5
0.5
0.5
0.5
0.5
0.5
0.5
0.5
0.5
0.5
0.5
0.5
0.5
0.5
0.5
0.5
0.5
0.5
0.5
0.5
0.5
0.5
0.5
0.5
0.5
0.5
0.5
0.5
0.5
0.5
0.5
0.5
0.5
0.5
0.5
0.5
0.5
0.5
0.5
0.5
0.5
0.5
0.5
0.5
0.5
0.5
0.5
0.5
0.5
0.5
0.5
0.5
0.5
0.5
0.5
0.5
0.5
0.5
0.5
0.5
0.5
0.5
0.5
0.5
0.5
0.5
0.5
0.5
0.5
0.5
0.5
0.5
0.5
0.5
0.5
0.5
0.5
0.5
0.5
0.5
0.5
0.5
0.5
0.5
0.5
0.5
0.5
0.5
0.5
0.5
0.5
0.5
0.5
0.5
0.5
0.5
0.5
0.5
0.5
0.5
0.5
0.5
0.5
0.5
0.5
0.5
0.5
0.5
0.5
0.5
0.5
0.5
0.5
0.5
0.5
0.5
0.5
0.5
0.5
0.5
0.5
0.5
0.5
0.5
0.5
0.5
0.5
0.5
0.5
0.5
0.5
0.5
0.5
0.5
0.5
0.5
0.5
0.5
0.5
0.5
0.5
0.5
0.5
0.5
0.5
0.5
0.5
0.5
0.5
0.5
0.5
0.5
0.5
0.5
0.5
0.5
0.5
0.5
0.5
0.5
0.5
0.5
0.5
0.5
0.5
0.5
0.5
0.5
0.5
0.5
0.5
0.5
0.5
0.5
0.5
0.5
0.5
0.5
0.5
0.5
0.5
0.5
0.5
0.5
0.5
0.5
0.5
0.5
0.5
0.5
0.5
0.5
0.5
0.5
0.5
0.5
0.5
0.5
0.5
0.5
0.5
0.5
0.5
0.5
0.5
0.5
0.5
0.5
0.5
0.5
0.5
0.5
0.5
0.5
0.5
0.5
0.5
0.5
0.5
0.5
0.5
0.5
0.5
0.5
0.5
0.5
0.5
0.5
0.5
0.5
0.5
0.5
0.5
0.5
0.5
0.5
0.5
0.5
0.5
0.5
0.5
0.5
0.5
0.5
0.5
0.5
0.5
0.5
0.5
0.5
0.5
SCALARS quat double 4
LOOKUP_TABLE default
0.764776 -0.00194685 -0.0697003 0.640512 
0.791756 0.103417 0.602018 0.000787913 
0.990393 0.0760476 -0.0428812 -0.107236 
-0.367254 -0.501995 -0.532736 -0.573862 
0.125358 0.534728 -0.539727 0.638001 
0.784661 -0.390546 -0.0976708 0.471425 
0.343323 -0.77271 -0.14108 0.514923 
0.886726 0.0386879 0.379069 0.261776 
-0.0965474 0.440429 0.89226 -0.0239271 
0.0370844 0.0927118 0.0350987 0.994383 
0.85328 0.170795 -0.0603852 0.488974 
0.0618433 -0.931352 -0.0735097 -0.351219 
0.175859 0.424629 -0.0729089 0.885126 
0.607411 0.694881 0.370704 -0.103783 
0.32142 0.827281 -0.209848 0.410194 
0.991341 0.0943515 -0.0671989 0.0618396 
0.716943 0.0519237 -0.0103277 0.695119 
0.992886 0.0373815 -0.040943 0.105373 
0.978907 0.119596 -0.107493 0.126028 
-0.729199 0.218551 0.643278 0.0818315 
0.824083 0.197704 0.484058 -0.217919 
-0.261351 0.890673 -0.221852 0.298627 
0.807065 -0.245915 -0.448165 -0.295501 
0.497905 0.753465 -0.416311 -0.105199 
0.985336 0.0834081 -0.0939193 0.115479 
0.816156 0.161053 -0.212697 0.512554 
-0.722355 0.565295 -0.376401 0.130258 
0.969201 0.124375 -0.188795 -0.0976601 
0.858731 -0.224646 -0.418754 0.191729 
-0.164335 0.381012 -0.329942 0.847916 
0.647697 0.481763 0.48112 0.341931 
-0.114058 -0.619457 -0.519804 -0.57712 
0.254812 0.00345073 -0.911434 0.323027 
0.0832609 0.116627 0.0844319 0.986072 
0.534491 0.756495 0.150343 -0.345588 
0.523627 -0.420789 0.000852175 0.740777 
-0.197556 0.525008 -0.424338 0.710827 
0.277106 0.243647 0.240871 0.89768 
0.742931 -0.620777 -0.221564 0.116612 
0.585138 0.60823 -0.141223 -0.517423 
0.924498 0.157036 -0.188338 0.291841 
0.689758 0.179421 -0.0571918 0.699122 
0.983222 -0.152751 -0.0968163 -0.023839 
-0.000177963 0.835611 0.521542 -0.172478 
0.796166 -0.534697 -0.205817 -0.194572 
0.263654 0.273078 -0.652153 0.65621 
0.545989 -0.159768 0.116842 -0.814075 
-0.956995 0.206877 -0.15704 0.12923 
0.360805 0.696445 -0.539382 0.306351 
-0.871833 0.471378 0.0686351 -0.114017 
0.907918 0.348208 -0.187565 -0.138763 
-0.259066 0.45099 0.828406 -0.207936 
0.725199 0.0509338 0.618679 -0.297874 
-0.616861 0.438082 -0.653635 0.0181194 
-0.471027 0.548859 0.380955 -0.575986 
-0.374217 0.598138 0.696169 -0.132445 
-0.162205 0.196287 0.921306 -0.293863 
0.0384035 -0.051476 -0.884853 -0.461422 
-0.185083 0.115167 0.721519 -0.657185 
0.338403 -0.923188 -0.146719 0.108078 
-0.40462 0.303841 0.696626 -0.508601 
-0.886137 -0.10402 0.0821728 0.44406 
-0.305476 -0.706401 0.136536 0.623731 
0.158766 0.171922 0.960271 0.152041 
-0.0768356 0.0333757 0.993294 -0.0796873 
0.899274 0.289424 -0.317118 -0.083526 
-0.0294357 -0.961244 -0.189235 0.198326 
0.957144 -0.17677 -0.148832 0.174575 
0.89151 0.0579334 0.401382 -0.201857 
-0.95996 0.045979 -0.0223235 -0.275435 
0.673304 -0.64097 -0.217434 0.297559 
-0.63193 -0.647203 -0.397128 -0.155183 
0.232766 0.375984 -0.00779163 -0.896881 
-0.646802 0.671565 -0.323529 -0.161176 
0.952267 -0.218173 0.0113389 -0.213213 
0.952692 0.0829087 -0.0896559 -0.278329 
0.621922 -0.069127 -0.677658 0.386283 
0.884374 -0.337463 0.32156 -0.0244976 
-0.692821 -0.212891 -0.0129486 0.688846 
-0.592256 0.330986 -0.0595763 -0.73221 
0.996415 0.015351 0.0630308 0.0542946 
-0.249275 0.90395 0.0101251 0.347324 
0.742362 -0.0315772 0.667938 -0.0419689 
-0.235577 0.843774 -0.278805 0.393468 
0.939103 -0.303611 0.146035 -0.067669 
0.784805 -0.550099 -0.265501 0.104789 
-0.0715085 -0.4558 -0.0901332 -0.882615 
0.740906 0.381393 0.0530128 -0.550262 
0.331559 0.928299 0.0578137 -0.158072 
-0.255632 0.575069 -0.701528 0.334374 
0.814808 -0.346269 0.414943 -0.209781 
-0.832025 0.338851 -0.414206 0.146108 
0.869879 -0.0344617 -0.432451 0.234751 
0.771922 -0.487562 0.401365 0.0729728 
0.792339 0.0457816 0.33786 -0.505918 
0.276458 -0.586629 -0.523168 -0.552931 
0.193017 -0.782065 0.555612 0.205949 
0.346525 -0.0300025 -0.882348 0.316989 
-0.562701 0.61025 0.27592 -0.484593 
0.979333 -0.154561 -0.0293119 -0.127115 
0.832419 -0.147378 -0.0796743 -0.528214 
0.440755 0.44378 0.752295 0.206991 
-0.189961 0.434124 -0.880312 0.0224248 
-0.533312 -0.508707 -0.668961 0.0963603 
-0.20064 -0.0832584 -0.540629 0.812731 
0.868042 0.244203 0.157005 0.402763 
-0.860975 0.377489 0.287009 -0.183986 
0.523565 0.681524 0.424672 0.284709 
0.886674 0.279157 -0.132752 -0.343886 
-0.0787114 0.243487 -0.951212 0.17238 
-0.0265523 -0.601272 -0.569237 0.560121 
-0.506466 -0.177739 0.777236 0.328337 
-0.089251 -0.243946 0.11142 -0.959224 
0.854428 -0.244471 0.39139 0.238748 
-0.289149 0.036924 0.026928 0.956193 
0.9048 -0.357429 0.205544 -0.106455 
0.209827 -0.735192 0.597729 0.241217 
0.380626 -0.0832449 -0.451801 0.802539 
0.853345 0.0251239 0.171335 0.491748 
0.187325 0.133637 -0.805866 0.545556 
0.0404548 0.374675 0.305705 -0.874372 
-0.152242 -0.297311 -0.789076 0.515546 
0.317554 -0.464949 -0.423607 -0.709605 
-0.899848 -0.252957 -0.252567 0.249992 
0.794506 -0.56116 0.0165047 0.231489 
0.780078 0.313094 -0.508885 -0.185709 
0.462223 0.576203 0.546843 -0.394084 
0.52998 0.274436 0.201547 -0.77665 
-0.408309 0.122725 0.899712 -0.093487 
0.462944 -0.404933 0.694584 0.373182 
-0.0391236 0.18455 0.945874 -0.264071 
-0.965918 0.0287328 -0.125006 -0.224836 
-0.160896 -0.629372 -0.731644 -0.206643 
0.245903 0.185599 -0.951216 -0.0165258 
0.134327 -0.915486 0.234673 0.297944 
0.077473 -0.169003 0.759571 0.623288 
0.161266 0.682965 0.314179 0.639409 
-0.751793 -0.625113 0.099721 -0.184652 
0.314379 0.924633 -0.160911 -0.142571 
-0.0935134 0.813973 -0.573298 0.00564947 
-0.433985 0.140288 -0.873426 0.170598 
0.328806 -0.409139 0.191698 0.829303 
-0.0725763 0.525688 -0.222622 0.817817 
0.937579 -0.274914 -0.189928 0.0964093 
0.0101232 -0.523203 -0.784154 -0.333554 
-0.374999 -0.85367 0.214212 0.291096 
0.550971 -0.624675 0.384361 -0.398094 