# vtk DataFile Version 2.0
Generated by NetDEM
ASCII 
DATASET POLYDATA
POINTS 500 double
-0.419126 -0.408371 -0.464144 
-0.450002 -0.193155 -0.450027 
-0.403811 -0.0130646 -0.460382 
-0.450041 0.10697 -0.450023 
-0.43614 0.350562 -0.449993 
-0.271296 -0.429893 -0.459013 
-0.30268 -0.223268 -0.450019 
-0.190775 -0.0103581 -0.450054 
-0.171745 0.174918 -0.463927 
-0.255417 0.367423 -0.463749 
-0.0551583 -0.396977 -0.461164 
-0.147688 -0.133221 -0.450042 
-0.0547483 -0.0944241 -0.450024 
0.0386287 0.180422 -0.453088 
-0.028934 0.318993 -0.443542 
0.193039 -0.401446 -0.463093 
0.169755 -0.210232 -0.463391 
0.172605 -0.00362037 -0.46242 
0.161767 0.206281 -0.464924 
0.29704 0.4038 -0.418963 
0.450006 -0.410244 -0.450036 
0.432651 -0.298387 -0.45002 
0.340211 -0.011493 -0.450011 
0.375694 0.0848591 -0.450036 
0.372264 0.440412 -0.464888 
-0.431433 -0.411289 -0.394133 
-0.449996 -0.272271 -0.388876 
-0.407008 -0.0162117 -0.389128 
-0.444026 0.176971 -0.378834 
-0.450024 0.449589 -0.450066 
-0.337255 -0.40658 -0.40797 
-0.246865 -0.140922 -0.439663 
-0.158894 -0.100977 -0.215193 
-0.304882 0.165251 -0.46494 
-0.152022 0.405406 -0.452728 
-0.0904071 -0.390058 -0.398269 
0.307849 -0.248009 -0.138199 
-0.0462462 -0.0176141 -0.312318 
0.0305694 0.25983 -0.451546 
0.124365 0.302408 -0.433621 
0.201507 -0.414527 -0.390578 
0.167365 -0.206675 -0.390322 
0.175364 0.0177319 -0.386461 
0.196777 0.113586 -0.455024 
0.286246 0.36783 -0.326294 
0.380055 -0.450007 -0.390678 
0.435417 -0.35525 -0.367821 
0.275317 -0.211357 -0.450018 
0.450001 0.1417 -0.414721 
0.426177 0.342079 -0.45637 
-0.436352 -0.441072 -0.326066 
-0.306068 -0.215513 -0.350385 
-0.302054 -0.00813611 -0.437752 
-0.288505 0.272021 -0.450016 
-0.450018 0.276667 -0.38412 
-0.183152 -0.371257 -0.451715 
0.184489 -0.33706 -0.303721 
-0.239913 -0.0532034 -0.181242 
-0.171525 0.0781262 -0.450438 
-0.350237 0.332689 -0.337228 
0.0444472 -0.438732 -0.449858 
0.205653 -0.284402 -0.161832 
0.204528 0.0588719 -0.215017 
-0.0393963 0.224235 -0.395612 
0.25477 0.331852 -0.463835 
0.193934 -0.435715 -0.319694 
0.0526483 -0.0970366 -0.450745 
0.160625 0.0628352 -0.332658 
0.269805 0.064575 -0.441799 
0.112419 0.138122 -0.396896 
0.284426 -0.44884 -0.450007 
0.376416 -0.214344 -0.450078 
0.378787 -0.110141 -0.450033 
0.450006 0.229804 -0.365616 
0.437525 0.256969 -0.459923 
-0.432887 -0.452948 -0.243224 
-0.17598 -0.15875 -0.357613 
-0.237414 -0.00410349 -0.352836 
-0.266533 0.0882292 -0.405663 
-0.351864 0.143901 -0.354717 
-0.163206 -0.449487 -0.395639 
-0.125227 -0.0563267 -0.390182 
-0.240061 0.047124 -0.227414 
-0.0549328 0.129748 -0.446086 
-0.356928 0.382342 -0.406291 
0.0877073 -0.451283 -0.354702 
0.445569 -0.3388 -0.0859724 
-0.188292 -0.23676 -0.450008 
0.0164684 0.0476065 -0.450341 
0.0679216 0.39819 -0.411722 
0.25946 -0.445798 -0.246424 
0.152172 -0.319031 -0.401057 
0.118016 0.0694068 -0.273225 
0.266021 0.174344 -0.442261 
0.142613 0.450007 -0.450014 
0.347349 -0.307923 -0.36532 
0.450002 -0.105652 -0.380022 
0.38796 0.156483 -0.333796 
0.331698 0.310064 -0.412495 
0.438424 0.371277 -0.376838 
-0.386085 -0.439573 -0.170275 
-0.368869 -0.358521 -0.122524 
-0.29466 -0.0414896 -0.276669 
-0.363631 0.0678518 -0.418538 
-0.449739 0.431586 -0.351685 
-0.27069 -0.441159 -0.362671 
-0.0622207 -0.159563 -0.374534 
-0.247696 0.0389722 -0.128058 
-0.00235947 -0.0251854 -0.397908 
-0.423914 0.242956 -0.463913 
0.0833213 -0.341624 -0.440794 
0.355112 -0.211138 -0.0581736 
0.041559 -0.120803 -0.352655 
0.0257665 0.0410164 -0.355504 
-0.00316728 0.435307 -0.464018 
0.301392 -0.386285 -0.219112 
0.259289 -0.315516 -0.423677 
0.0359969 0.0684656 -0.263632 
0.249922 0.244456 -0.382678 
0.347807 0.449851 -0.273994 
0.316986 -0.398531 -0.332616 
0.450065 -0.207564 -0.382892 
0.45 -0.029483 -0.450007 
0.343775 0.211102 -0.404961 
0.399951 0.452417 -0.374277 
-0.462181 -0.451933 -0.12709 
-0.320738 -0.140223 -0.286039 
-0.451113 -0.0287052 -0.321501 
-0.252353 0.192249 -0.39495 
-0.303746 0.450005 -0.365715 
-0.167127 -0.374082 -0.341245 
-0.0843276 -0.221274 -0.450036 
-0.197205 -0.162769 -0.14654 
-0.13395 0.149752 -0.397662 
-0.227613 0.335354 -0.394267 
-0.0906261 -0.309154 -0.451218 
0.285449 -0.320062 -0.07247 
0.450035 0.0529066 -0.163189 
0.0412908 0.121681 -0.332997 
-0.117891 0.312743 -0.411758 
0.153143 -0.441658 -0.243625 
0.240285 -0.140278 -0.394321 
0.107792 -0.0220158 -0.226469 
0.195688 0.307123 -0.34048 
0.199947 0.385878 -0.397704 
0.449989 -0.441723 -0.319645 
0.330964 -0.173173 -0.371158 
0.251153 -0.0595444 -0.450032 
0.447037 0.0475912 -0.381041 
0.440792 0.409379 -0.300474 
-0.43823 -0.458057 -0.0125778 
-0.227243 -0.173188 -0.272987 
-0.422864 -0.111253 -0.407412 
-0.206371 0.269901 -0.336025 
-0.338213 0.241969 -0.368628 
-0.142484 -0.291546 -0.371638 
0.129007 -0.450006 -0.0940112 
-0.303771 0.367911 -0.189257 
-0.104656 0.275333 -0.330978 
-0.221906 0.461457 -0.45156 
-0.00157425 -0.338993 -0.366927 
0.115525 -0.241704 -0.154394 
-0.180252 -0.0701861 -0.307874 
0.0172529 0.200301 -0.304761 
0.0146288 0.295222 -0.350979 
0.0745947 -0.408663 -0.273916 
0.137486 -0.0981069 -0.400897 
0.255529 -0.116366 -0.265647 
0.234469 0.185449 -0.326712 
0.138109 0.448417 -0.350132 
0.385759 -0.230022 -0.309682 
0.3441 -0.0668574 -0.366834 
0.320294 0.0548331 -0.372418 
0.405576 0.301106 -0.310222 
0.446982 0.378217 -0.215962 
-0.326112 -0.446147 -0.0914317 
-0.449523 -0.0992218 -0.267605 
-0.358451 0.0107894 -0.249502 
-0.448353 0.0698268 -0.357185 
-0.415267 0.264195 -0.291216 
-0.264929 -0.310744 -0.446243 
-0.182028 -0.275698 -0.260555 
-0.143164 0.400263 -0.0849415 
-0.123858 0.190554 -0.334962 
-0.138321 0.441345 -0.354672 
0.0016791 -0.434758 -0.356887 
0.0159959 -0.0949925 -0.259505 
0.0156029 -0.224924 -0.450008 
-0.025502 0.271004 -0.251736 
-0.00493342 0.409012 -0.370431 
0.0720379 -0.425625 -0.172468 
0.0992052 -0.0408543 -0.332387 
0.284329 -0.160655 -0.190293 
0.20199 0.135363 -0.273467 
0.248286 0.449979 -0.283606 
0.449969 -0.308717 -0.280508 
0.450022 -0.148136 -0.289514 
0.365128 0.0383066 -0.284595 
0.319456 0.250368 -0.307425 
0.383923 0.428198 -0.198569 
-0.246316 -0.444751 -0.165277 
-0.443429 0.231801 -0.200928 
-0.292546 0.18759 -0.188381 
-0.189218 0.0764842 -0.343351 
-0.371487 0.449869 -0.292193 
-0.228439 -0.348743 -0.244715 
-0.0436416 -0.259294 -0.315594 
0.0162847 -0.242412 -0.237349 
-0.155934 0.117203 -0.256001 
-0.165851 0.350405 -0.330104 
-0.0452334 -0.384888 -0.293797 
-0.188618 -0.0964859 0.168852 
-0.0297023 0.20622 -0.169848 
-0.0528276 0.101886 -0.331854 
0.104614 0.356082 -0.334948 
0.262868 -0.437805 -0.143302 
0.219689 -0.196613 -0.311277 
0.292074 -0.106728 -0.126628 
0.149417 0.22551 -0.29369 
0.193788 0.362739 -0.264083 
0.407679 -0.3917 -0.244101 
0.440552 -0.225043 -0.226298 
0.433572 -0.0315466 -0.314931 
0.303576 0.116415 -0.295252 
0.409094 0.403312 -0.125635 
-0.257345 -0.333997 -0.153474 
-0.417597 -0.334341 -0.317482 
-0.432933 0.336951 -0.135925 
-0.342533 0.324217 -0.0696807 
-0.448794 0.423074 -0.0136944 
-0.142204 -0.419425 -0.25748 
-0.0509221 0.138248 -0.0708517 
-0.259459 -0.174804 -0.0313953 
-0.182607 0.176508 -0.188235 
-0.158572 0.339223 -0.222858 
-0.0645649 -0.38369 -0.208894 
-0.13917 -0.141026 -0.0224469 
-0.111333 -0.0234462 -0.173347 
-0.00779138 0.109825 -0.198969 
0.0264404 0.447491 -0.279474 
0.297591 -0.329354 -0.172561 
0.249815 -0.291426 -0.341056 
0.349567 -0.0527469 -0.0756391 
0.15291 0.27627 -0.227592 
0.209133 0.404301 -0.140976 
0.357571 -0.450029 -0.172539 
0.449996 -0.199294 -0.0874027 
0.337678 0.129318 -0.0126594 
0.45 0.151645 -0.179526 
0.424676 0.38623 -0.0451213 
-0.296194 -0.320735 -0.348572 
-0.120089 -0.201683 -0.286691 
-0.326638 -0.0163719 -0.148407 
-0.220156 0.199277 -0.266588 
-0.421475 0.44614 -0.2057 
-0.249829 -0.430075 -0.273231 
0.094163 -0.280051 -0.309263 
-0.307202 0.256742 -0.134555 
-0.245314 0.300326 -0.210117 
-0.149304 0.44273 -0.248112 
0.014299 -0.380992 -0.166442 
0.450011 -0.390649 -0.000610617 
0.0763217 0.438546 -0.188843 
-0.0744458 0.40601 -0.323836 
-0.0398174 0.447868 -0.220866 
0.35614 -0.394527 -0.0935007 
0.372882 -0.0984531 -0.174634 
0.191384 -0.0244843 -0.291263 
0.219672 0.200895 -0.206954 
0.0895489 0.24409 -0.367883 
0.353235 -0.304159 -0.251247 
0.34822 -0.152207 -0.259386 
0.449975 0.0885347 -0.263175 
0.449737 0.213043 -0.267052 
0.407604 0.451263 -0.0219137 
-0.339886 -0.393844 0.00771784 
-0.138228 -0.345696 -0.153704 
-0.434868 -0.112287 -0.18365 
-0.450008 0.094867 -0.177401 
-0.343891 0.197298 -0.27054 
-0.146495 -0.44418 -0.173046 
-0.0659047 -0.282709 -0.192452 
-0.22714 0.449998 -0.301477 
-0.282212 0.309565 -0.282893 
-0.226355 0.435448 -0.183171 
0.0402258 -0.406713 -0.081142 
-0.115502 0.450003 0.11681 
0.0347589 0.182681 -0.0971226 
-0.0733986 0.307035 -0.203474 
0.00754412 0.365913 -0.198173 
0.271335 -0.415553 -0.0337496 
0.0288648 -0.092833 -0.0158461 
0.145227 -0.0392608 -0.142779 
0.287183 0.174474 -0.151219 
0.0626114 0.260488 -0.164958 
0.400229 -0.282717 -0.155182 
0.450024 -0.142914 -0.169977 
0.330794 -0.0541485 -0.268036 
0.450004 0.278554 -0.191519 
0.301328 0.414717 -0.0865178 
-0.291199 -0.352746 -0.0630069 
-0.421303 -0.000216808 -0.188962 
-0.394253 -0.29261 -0.0715772 
-0.429201 0.138519 -0.287036 
-0.450011 0.450005 -0.109967 
-0.158492 -0.424398 -0.0729911 
-0.134162 -0.318405 -0.0575885 
-0.280953 0.0921695 -0.306804 
-0.13409 0.275927 -0.113995 
-0.24592 0.384001 -0.10324 
-0.0224859 -0.425575 -0.0183766 
-0.407994 -0.174292 -0.321033 
0.00602488 -0.00227164 -0.223409 
-0.0409913 0.289238 -0.0996309 
-0.00969186 0.443676 -0.132269 
0.150876 -0.387617 -0.0161937 
0.449947 0.00340857 0.0131009 
0.075628 -0.0276928 -0.0770005 
0.300135 0.337351 -0.222374 
0.283418 0.449927 -0.189985 
0.373293 -0.449986 -0.0249833 
0.437202 -0.0489595 0.08525 
0.246246 -0.0545707 -0.350297 
0.346539 0.255658 -0.201069 
0.43848 0.451971 0.0699155 
-0.351153 -0.214096 -0.0155409 
-0.39236 -0.274319 -0.17406 
-0.414458 0.10179 -0.0973144 
-0.388351 0.320043 -0.21269 
-0.449985 0.361686 -0.28018 
-0.173368 -0.435436 0.0458905 
-0.0598061 -0.150591 -0.225425 
-0.223114 0.293228 -0.0945488 
-0.101261 0.388201 -0.171279 
-0.0744391 0.43886 -0.0508497 
-0.0917535 -0.448839 0.0239509 
0.0805147 -0.166008 -0.231328 
-0.0709433 0.0658354 -0.136848 
0.0364636 0.249581 -0.0392552 
0.00751795 0.42332 -0.0603736 
0.137664 -0.340701 -0.109205 
0.178099 -0.189746 -0.226959 
0.125068 0.149997 -0.189782 
0.313015 0.220875 -0.0677656 
0.170318 0.450011 -0.220997 
0.45 -0.417051 -0.153162 
0.319519 -0.265449 0.0178514 
0.410821 -0.0208243 -0.218151 
0.368226 0.164271 -0.235803 
0.416219 0.272159 0.165766 
-0.4202 -0.379772 0.0545925 
-0.45 -0.217265 -0.241106 
-0.365579 0.21897 -0.083685 
-0.447632 0.0616081 -0.0067493 
-0.450015 0.193206 -0.108921 
-0.2247 -0.379755 -0.00389691 
-0.277589 -0.108089 -0.103653 
-0.324232 -0.106168 -0.192092 
-0.190794 0.355842 -0.00346668 
-0.133848 0.400407 0.0213962 
0.0386333 -0.188238 -0.130065 
-0.15075 -0.249597 -0.129044 
0.21994 0.130827 -0.0967417 
0.10555 0.32023 -0.0574838 
-0.0219694 0.439672 0.0311123 
0.0790463 -0.216097 -0.0235287 
0.454219 -0.0684133 -0.112673 
0.281616 0.0635845 -0.0315461 
0.188093 0.225966 -0.120679 
0.102764 0.334638 0.072056 
0.398081 -0.0808408 -0.00265251 
0.449589 -0.268362 -0.0151015 
0.364839 0.0106474 -0.132281 
0.427699 0.114132 -0.0873706 
0.324842 0.316849 -0.123188 
-0.427679 -0.18332 -0.135675 
-0.450002 -0.237609 -0.0342061 
-0.398342 -0.00702917 -0.0937258 
-0.449998 0.281077 0.0520863 
-0.341046 0.450007 -0.146031 
-0.238041 -0.302052 0.061088 
-0.27384 -0.273014 -0.0191961 
-0.325702 0.065686 -0.0529063 
-0.119933 0.218576 -0.0455923 
-0.124582 0.191223 0.0251435 
0.0267328 -0.311458 -0.0175659 
-0.120054 -0.106167 -0.117275 
0.10869 0.113939 -0.0993432 
-0.156805 0.104718 -0.127153 
0.0422782 0.406703 0.108967 
0.0402684 -0.291922 -0.148186 
0.282891 -0.0743727 -0.0170345 
0.265779 0.0235911 -0.103417 
0.185377 0.283334 -0.0410192 
0.144747 0.330048 -0.159744 
0.327347 -0.343101 0.0803621 
0.25712 -0.17945 -0.0741017 
0.416307 0.190436 -0.0237732 
0.406432 0.238071 -0.111139 
0.436901 0.281597 -0.0238319 
-0.335931 -0.343272 0.0899094 
-0.337474 -0.229773 -0.244796 
-0.448422 -0.0620909 -0.024128 
-0.449998 0.130302 0.0684714 
-0.278753 0.367535 -0.00600024 
-0.0636905 -0.182531 -0.140094 
-0.177982 -0.232896 -0.0297426 
-0.235134 -0.00138873 -0.0374497 
-0.285293 0.219362 -0.0163413 
-0.204325 0.41264 0.0855469 
0.207812 -0.0597708 -0.0995865 
0.00081799 -0.0810223 -0.161662 
-0.137656 -0.0325686 0.111271 
-0.0280097 0.246245 0.0288433 
-0.0731456 0.345234 0.0680818 
0.314856 -0.44116 0.0669987 
0.330228 -0.210748 0.102329 
0.175932 0.0388471 -0.130028 
0.264144 0.287158 0.00471931 
0.239527 0.449977 -0.0159917 
0.44854 -0.166639 0.0070856 
0.316305 0.361634 -0.00805875 
0.449974 0.0888222 0.00677558 
0.432119 0.16337 0.0711754 
0.383636 0.364764 0.0641883 
-0.401907 -0.392893 0.143379 
-0.430826 -0.26478 0.0601002 
-0.195993 -0.069622 -0.0759256 
-0.437203 0.27849 -0.0525642 
-0.38725 0.350074 0.0160095 
-0.210014 -0.392356 0.0967642 
-0.253839 -0.0107163 0.111594 
-0.0426067 -0.015293 -0.0856982 
-0.27645 0.136654 -0.104162 
-0.286651 0.397857 0.153683 
0.189341 -0.435645 0.0506575 
0.117946 -0.136473 -0.14342 
0.0304536 0.0536704 -0.118918 
-0.0887958 0.108464 0.065398 
-0.0416369 0.407574 0.153897 
0.310709 -0.415212 0.161814 
0.203455 -0.116643 -0.00421991 
0.0982537 0.191281 -0.00967114 
0.266585 0.170215 0.139746 
0.154706 0.418111 -0.0582389 
0.412203 -0.450009 0.0704152 
0.332887 -0.161296 0.0256206 
-0.212451 0.100145 -0.0507198 
0.361528 0.211341 0.123279 
0.318675 0.448253 0.0550418 
-0.441687 -0.450315 0.174458 
-0.276821 0.0513112 0.0366003 
-0.39347 -0.00106194 0.0334761 
-0.41687 0.155486 -0.0224579 
-0.450003 0.416796 0.0860886 
-0.295832 -0.447285 0.0657579 
-0.237593 -0.153245 0.0637894 
-0.171185 0.0322726 0.0316855 
-0.338597 0.126518 0.0374462 
-0.42862 0.404248 0.187857 
0.238195 -0.248318 0.1172 
-0.0466724 -0.1446 -0.060262 
-0.0903263 0.0620522 -0.0194791 
0.0226431 0.334187 0.0112219 
0.011368 0.303634 0.100365 
0.189992 -0.246298 -0.0742772 
0.213305 -0.293004 0.0274054 
0.189655 -0.0104653 -0.0248461 
0.191742 0.171079 -0.00248576 
0.0801662 0.425972 0.0079027 
0.426436 -0.352902 0.0895712 
0.449999 -0.14616 0.104938 
0.345098 0.00697744 0.0164859 
0.271189 0.167161 0.0517412 
0.451369 0.353383 0.115761 
-0.312524 -0.310032 0.154191 
-0.202775 -0.0621588 0.0412023 
-0.437789 -0.00821216 0.137644 
-0.371472 0.22074 0.0382053 
-0.360212 0.449994 0.114984 
-0.175335 -0.241185 0.0689532 
-0.190821 -0.193083 0.143097 
-0.0871683 -0.0273839 0.0251191 
-0.307772 0.308164 0.0661643 
-0.215347 0.237806 0.054838 
-0.0476317 -0.117377 0.0360118 
-0.017525 -0.254948 -0.0793279 
0.0183699 0.00266507 -0.00846782 
0.233817 -0.15909 0.0638892 
0.0123754 0.448184 0.217859 
0.215949 -0.365082 0.104902 
0.445543 -0.29416 0.157121 
0.30665 0.0629589 0.0928619 
0.178992 0.248678 0.0599857 
0.183544 0.366238 0.0223094 
0.406323 -0.408542 0.170202 
0.448787 -0.202378 0.18762 
0.323582 -0.0718848 0.0760834 
0.398434 0.0904494 0.130733 
0.23244 0.424608 0.0950731 
VERTICES 500 1000
1 0
1 1
1 2
1 3
1 4
1 5
1 6
1 7
1 8
1 9
1 10
1 11
1 12
1 13
1 14
1 15
1 16
1 17
1 18
1 19
1 20
1 21
1 22
1 23
1 24
1 25
1 26
1 27
1 28
1 29
1 30
1 31
1 32
1 33
1 34
1 35
1 36
1 37
1 38
1 39
1 40
1 41
1 42
1 43
1 44
1 45
1 46
1 47
1 48
1 49
1 50
1 51
1 52
1 53
1 54
1 55
1 56
1 57
1 58
1 59
1 60
1 61
1 62
1 63
1 64
1 65
1 66
1 67
1 68
1 69
1 70
1 71
1 72
1 73
1 74
1 75
1 76
1 77
1 78
1 79
1 80
1 81
1 82
1 83
1 84
1 85
1 86
1 87
1 88
1 89
1 90
1 91
1 92
1 93
1 94
1 95
1 96
1 97
1 98
1 99
1 100
1 101
1 102
1 103
1 104
1 105
1 106
1 107
1 108
1 109
1 110
1 111
1 112
1 113
1 114
1 115
1 116
1 117
1 118
1 119
1 120
1 121
1 122
1 123
1 124
1 125
1 126
1 127
1 128
1 129
1 130
1 131
1 132
1 133
1 134
1 135
1 136
1 137
1 138
1 139
1 140
1 141
1 142
1 143
1 144
1 145
1 146
1 147
1 148
1 149
1 150
1 151
1 152
1 153
1 154
1 155
1 156
1 157
1 158
1 159
1 160
1 161
1 162
1 163
1 164
1 165
1 166
1 167
1 168
1 169
1 170
1 171
1 172
1 173
1 174
1 175
1 176
1 177
1 178
1 179
1 180
1 181
1 182
1 183
1 184
1 185
1 186
1 187
1 188
1 189
1 190
1 191
1 192
1 193
1 194
1 195
1 196
1 197
1 198
1 199
1 200
1 201
1 202
1 203
1 204
1 205
1 206
1 207
1 208
1 209
1 210
1 211
1 212
1 213
1 214
1 215
1 216
1 217
1 218
1 219
1 220
1 221
1 222
1 223
1 224
1 225
1 226
1 227
1 228
1 229
1 230
1 231
1 232
1 233
1 234
1 235
1 236
1 237
1 238
1 239
1 240
1 241
1 242
1 243
1 244
1 245
1 246
1 247
1 248
1 249
1 250
1 251
1 252
1 253
1 254
1 255
1 256
1 257
1 258
1 259
1 260
1 261
1 262
1 263
1 264
1 265
1 266
1 267
1 268
1 269
1 270
1 271
1 272
1 273
1 274
1 275
1 276
1 277
1 278
1 279
1 280
1 281
1 282
1 283
1 284
1 285
1 286
1 287
1 288
1 289
1 290
1 291
1 292
1 293
1 294
1 295
1 296
1 297
1 298
1 299
1 300
1 301
1 302
1 303
1 304
1 305
1 306
1 307
1 308
1 309
1 310
1 311
1 312
1 313
1 314
1 315
1 316
1 317
1 318
1 319
1 320
1 321
1 322
1 323
1 324
1 325
1 326
1 327
1 328
1 329
1 330
1 331
1 332
1 333
1 334
1 335
1 336
1 337
1 338
1 339
1 340
1 341
1 342
1 343
1 344
1 345
1 346
1 347
1 348
1 349
1 350
1 351
1 352
1 353
1 354
1 355
1 356
1 357
1 358
1 359
1 360
1 361
1 362
1 363
1 364
1 365
1 366
1 367
1 368
1 369
1 370
1 371
1 372
1 373
1 374
1 375
1 376
1 377
1 378
1 379
1 380
1 381
1 382
1 383
1 384
1 385
1 386
1 387
1 388
1 389
1 390
1 391
1 392
1 393
1 394
1 395
1 396
1 397
1 398
1 399
1 400
1 401
1 402
1 403
1 404
1 405
1 406
1 407
1 408
1 409
1 410
1 411
1 412
1 413
1 414
1 415
1 416
1 417
1 418
1 419
1 420
1 421
1 422
1 423
1 424
1 425
1 426
1 427
1 428
1 429
1 430
1 431
1 432
1 433
1 434
1 435
1 436
1 437
1 438
1 439
1 440
1 441
1 442
1 443
1 444
1 445
1 446
1 447
1 448
1 449
1 450
1 451
1 452
1 453
1 454
1 455
1 456
1 457
1 458
1 459
1 460
1 461
1 462
1 463
1 464
1 465
1 466
1 467
1 468
1 469
1 470
1 471
1 472
1 473
1 474
1 475
1 476
1 477
1 478
1 479
1 480
1 481
1 482
1 483
1 484
1 485
1 486
1 487
1 488
1 489
1 490
1 491
1 492
1 493
1 494
1 495
1 496
1 497
1 498
1 499
POINT_DATA 500
SCALARS id int 1
LOOKUP_TABLE default
0
1
2
3
4
5
6
7
8
9
10
11
12
13
14
15
16
17
18
19
20
21
22
23
24
25
26
27
28
29
30
31
32
33
34
35
36
37
38
39
40
41
42
43
44
45
46
47
48
49
50
51
52
53
54
55
56
57
58
59
60
61
62
63
64
65
66
67
68
69
70
71
72
73
74
75
76
77
78
79
80
81
82
83
84
85
86
87
88
89
90
91
92
93
94
95
96
97
98
99
100
101
102
103
104
105
106
107
108
109
110
111
112
113
114
115
116
117
118
119
120
121
122
123
124
125
126
127
128
129
130
131
132
133
134
135
136
137
138
139
140
141
142
143
144
145
146
147
148
149
150
151
152
153
154
155
156
157
158
159
160
161
162
163
164
165
166
167
168
169
170
171
172
173
174
175
176
177
178
179
180
181
182
183
184
185
186
187
188
189
190
191
192
193
194
195
196
197
198
199
200
201
202
203
204
205
206
207
208
209
210
211
212
213
214
215
216
217
218
219
220
221
222
223
224
225
226
227
228
229
230
231
232
233
234
235
236
237
238
239
240
241
242
243
244
245
246
247
248
249
250
251
252
253
254
255
256
257
258
259
260
261
262
263
264
265
266
267
268
269
270
271
272
273
274
275
276
277
278
279
280
281
282
283
284
285
286
287
288
289
290
291
292
293
294
295
296
297
298
299
300
301
302
303
304
305
306
307
308
309
310
311
312
313
314
315
316
317
318
319
320
321
322
323
324
325
326
327
328
329
330
331
332
333
334
335
336
337
338
339
340
341
342
343
344
345
346
347
348
349
350
351
352
353
354
355
356
357
358
359
360
361
362
363
364
365
366
367
368
369
370
371
372
373
374
375
376
377
378
379
380
381
382
383
384
385
386
387
388
389
390
391
392
393
394
395
396
397
398
399
400
401
402
403
404
405
406
407
408
409
410
411
412
413
414
415
416
417
418
419
420
421
422
423
424
425
426
427
428
429
430
431
432
433
434
435
436
437
438
439
440
441
442
443
444
445
446
447
448
449
450
451
452
453
454
455
456
457
458
459
460
461
462
463
464
465
466
467
468
469
470
471
472
473
474
475
476
477
478
479
480
481
482
483
484
485
486
487
488
489
490
491
492
493
494
495
496
497
498
499
SCALARS type int 1
LOOKUP_TABLE default
0
0
0
0
0
0
0
0
0
0
0
0
0
0
0
0
0
0
0
0
0
0
0
0
0
0
0
0
0
0
0
0
0
0
0
0
0
0
0
0
0
0
0
0
0
0
0
0
0
0
0
0
0
0
0
0
0
0
0
0
0
0
0
0
0
0
0
0
0
0
0
0
0
0
0
0
0
0
0
0
0
0
0
0
0
0
0
0
0
0
0
0
0
0
0
0
0
0
0
0
0
0
0
0
0
0
0
0
0
0
0
0
0
0
0
0
0
0
0
0
0
0
0
0
0
0
0
0
0
0
0
0
0
0
0
0
0
0
0
0
0
0
0
0
0
0
0
0
0
0
0
0
0
0
0
0
0
0
0
0
0
0
0
0
0
0
0
0
0
0
0
0
0
0
0
0
0
0
0
0
0
0
0
0
0
0
0
0
0
0
0
0
0
0
0
0
0
0
0
0
0
0
0
0
0
0
0
0
0
0
0
0
0
0
0
0
0
0
0
0
0
0
0
0
0
0
0
0
0
0
0
0
0
0
0
0
0
0
0
0
0
0
0
0
0
0
0
0
0
0
0
0
0
0
0
0
0
0
0
0
0
0
0
0
0
0
0
0
0
0
0
0
0
0
0
0
0
0
0
0
0
0
0
0
0
0
0
0
0
0
0
0
0
0
0
0
0
0
0
0
0
0
0
0
0
0
0
0
0
0
0
0
0
0
0
0
0
0
0
0
0
0
0
0
0
0
0
0
0
0
0
0
0
0
0
0
0
0
0
0
0
0
0
0
0
0
0
0
0
0
0
0
0
0
0
0
0
0
0
0
0
0
0
0
0
0
0
0
0
0
0
0
0
0
0
0
0
0
0
0
0
0
0
0
0
0
0
0
0
0
0
0
0
0
0
0
0
0
0
0
0
0
0
0
0
0
0
0
0
0
0
0
0
0
0
0
0
0
0
0
0
0
0
0
0
0
0
0
0
0
0
0
0
0
0
0
0
0
0
0
0
0
0
0
0
0
0
0
0
0
0
0
0
0
0
0
0
0
0
0
0
0
0
0
0
0
0
0
0
0
0
0
0
0
0
0
0
0
0
0
0
0
0
0
0
0
0
0
0
0
0
0
0
0
0
0
0
0
0
0
SCALARS damp_viscous double 1
LOOKUP_TABLE default
0
0
0
0
0
0
0
0
0
0
0
0
0
0
0
0
0
0
0
0
0
0
0
0
0
0
0
0
0
0
0
0
0
0
0
0
0
0
0
0
0
0
0
0
0
0
0
0
0
0
0
0
0
0
0
0
0
0
0
0
0
0
0
0
0
0
0
0
0
0
0
0
0
0
0
0
0
0
0
0
0
0
0
0
0
0
0
0
0
0
0
0
0
0
0
0
0
0
0
0
0
0
0
0
0
0
0
0
0
0
0
0
0
0
0
0
0
0
0
0
0
0
0
0
0
0
0
0
0
0
0
0
0
0
0
0
0
0
0
0
0
0
0
0
0
0
0
0
0
0
0
0
0
0
0
0
0
0
0
0
0
0
0
0
0
0
0
0
0
0
0
0
0
0
0
0
0
0
0
0
0
0
0
0
0
0
0
0
0
0
0
0
0
0
0
0
0
0
0
0
0
0
0
0
0
0
0
0
0
0
0
0
0
0
0
0
0
0
0
0
0
0
0
0
0
0
0
0
0
0
0
0
0
0
0
0
0
0
0
0
0
0
0
0
0
0
0
0
0
0
0
0
0
0
0
0
0
0
0
0
0
0
0
0
0
0
0
0
0
0
0
0
0
0
0
0
0
0
0
0
0
0
0
0
0
0
0
0
0
0
0
0
0
0
0
0
0
0
0
0
0
0
0
0
0
0
0
0
0
0
0
0
0
0
0
0
0
0
0
0
0
0
0
0
0
0
0
0
0
0
0
0
0
0
0
0
0
0
0
0
0
0
0
0
0
0
0
0
0
0
0
0
0
0
0
0
0
0
0
0
0
0
0
0
0
0
0
0
0
0
0
0
0
0
0
0
0
0
0
0
0
0
0
0
0
0
0
0
0
0
0
0
0
0
0
0
0
0
0
0
0
0
0
0
0
0
0
0
0
0
0
0
0
0
0
0
0
0
0
0
0
0
0
0
0
0
0
0
0
0
0
0
0
0
0
0
0
0
0
0
0
0
0
0
0
0
0
0
0
0
0
0
0
0
0
0
0
0
0
0
0
0
0
0
0
0
0
0
0
0
0
0
0
0
0
0
0
0
0
0
0
0
0
0
0
0
0
0
0
0
0
0
0
0
0
0
0
0
0
0
SCALARS damp_numerical double 1
LOOKUP_TABLE default
0.5
0.5
0.5
0.5
0.5
0.5
0.5
0.5
0.5
0.5
0.5
0.5
0.5
0.5
0.5
0.5
0.5
0.5
0.5
0.5
0.5
0.5
0.5
0.5
0.5
0.5
0.5
0.5
0.5
0.5
0.5
0.5
0.5
0.5
0.5
0.5
0.5
0.5
0.5
0.5
0.5
0.5
0.5
0.5
0.5
0.5
0.5
0.5
0.5
0.5
0.5
0.5
0.5
0.5
0.5
0.5
0.5
0.5
0.5
0.5
0.5
0.5
0.5
0.5
0.5
0.5
0.5
0.5
0.5
0.5
0.5
0.5
0.5
0.5
0.5
0.5
0.5
0.5
0.5
0.5
0.5
0.5
0.5
0.5
0.5
0.5
0.5
0.5
0.5
0.5
0.5
0.5
0.5
0.5
0.5
0.5
0.5
0.5
0.5
0.5
0.5
0.5
0.5
0.5
0.5
0.5
0.5
0.5
0.5
0.5
0.5
0.5
0.5
0.5
0.5
0.5
0.5
0.5
0.5
0.5
0.5
0.5
0.5
0.5
0.5
0.5
0.5
0.5
0.5
0.5
0.5
0.5
0.5
0.5
0.5
0.5
0.5
0.5
0.5
0.5
0.5
0.5
0.5
0.5
0.5
0.5
0.5
0.5
0.5
0.5
0.5
0.5
0.5
0.5
0.5
0.5
0.5
0.5
0.5
0.5
0.5
0.5
0.5
0.5
0.5
0.5
0.5
0.5
0.5
0.5
0.5
0.5
0.5
0.5
0.5
0.5
0.5
0.5
0.5
0.5
0.5
0.5
0.5
0.5
0.5
0.5
0.5
0.5
0.5
0.5
0.5
0.5
0.5
0.5
0.5
0.5
0.5
0.5
0.5
0.5
0.5
0.5
0.5
0.5
0.5
0.5
0.5
0.5
0.5
0.5
0.5
0.5
0.5
0.5
0.5
0.5
0.5
0.5
0.5
0.5
0.5
0.5
0.5
0.5
0.5
0.5
0.5
0.5
0.5
0.5
0.5
0.5
0.5
0.5
0.5
0.5
0.5
0.5
0.5
0.5
0.5
0.5
0.5
0.5
0.5
0.5
0.5
0.5
0.5
0.5
0.5
0.5
0.5
0.5
0.5
0.5
0.5
0.5
0.5
0.5
0.5
0.5
0.5
0.5
0.5
0.5
0.5
0.5
0.5
0.5
0.5
0.5
0.5
0.5
0.5
0.5
0.5
0.5
0.5
0.5
0.5
0.5
0.5
0.5
0.5
0.5
0.5
0.5
0.5
0.5
0.5
0.5
0.5
0.5
0.5
0.5
0.5
0.5
0.5
0.5
0.5
0.5
0.5
0.5
0.5
0.5
0.5
0.5
0.5
0.5
0.5
0.5
0.5
0.5
0.5
0.5
0.5
0.5
0.5
0.5
0.5
0.5
0.5
0.5
0.5
0.5
0.5
0.5
0.5
0.5
0.5
0.5
0.5
0.5
0.5
0.5
0.5
0.5
0.5
0.5
0.5
0.5
0.5
0.5
0.5
0.5
0.5
0.5
0.5
0.5
0.5
0.5
0.5
0.5
0.5
0.5
0.5
0.5
0.5
0.5
0.5
0.5
0.5
0.5
0.5
0.5
0.5
0.5
0.5
0.5
0.5
0.5
0.5
0.5
0.5
0.5
0.5
0.5
0.5
0.5
0.5
0.5
0.5
0.5
0.5
0.5
0.5
0.5
0.5
0.5
0.5
0.5
0.5
0.5
0.5
0.5
0.5
0.5
0.5
0.5
0.5
0.5
0.5
0.5
0.5
0.5
0.5
0.5
0.5
0.5
0.5
0.5
0.5
0.5
0.5
0.5
0.5
0.5
0.5
0.5
0.5
0.5
0.5
0.5
0.5
0.5
0.5
0.5
0.5
0.5
0.5
0.5
0.5
0.5
0.5
0.5
0.5
0.5
0.5
0.5
0.5
0.5
0.5
0.5
0.5
0.5
0.5
0.5
0.5
0.5
0.5
0.5
0.5
0.5
0.5
0.5
0.5
0.5
0.5
0.5
0.5
0.5
0.5
0.5
0.5
0.5
0.5
0.5
0.5
0.5
0.5
0.5
0.5
0.5
0.5
0.5
0.5
0.5
0.5
0.5
0.5
0.5
0.5
0.5
0.5
0.5
0.5
0.5
0.5
0.5
0.5
0.5
0.5
0.5
0.5
0.5
0.5
0.5
0.5
0.5
SCALARS quat double 4
LOOKUP_TABLE default
0.962597 0.0899228 -0.0568735 0.249169 
0.788574 0.136014 0.599634 0.00950965 
0.984253 0.111324 -0.0298518 -0.134021 
-0.373548 -0.501794 -0.52439 -0.57765 
0.100562 0.707053 -0.411261 0.566416 
0.806418 -0.28213 -0.200551 0.479449 
0.0566355 -0.255801 -0.363911 0.893827 
0.875013 0.048367 0.348405 0.332606 
-0.0901718 0.421235 0.901968 -0.0297381 
0.057028 0.0921799 0.00972108 0.99406 
0.930873 -0.13592 -0.0787166 0.329856 
0.13877 -0.922588 -0.192786 -0.303986 
0.0667941 0.414308 -0.061511 0.905596 
0.603033 0.70844 0.352252 -0.101897 
0.332564 0.822055 -0.215892 0.408679 
0.996576 0.0703348 -0.0406839 0.0152733 
0.641466 0.0562614 -0.0349413 0.764288 
0.990043 0.0612686 -0.0224995 0.124723 
0.974729 0.112929 -0.0936143 0.168485 
-0.758936 0.181191 0.616311 0.106521 
0.833861 0.137915 0.507675 -0.167096 
-0.289015 0.851675 -0.288906 0.328106 
0.785815 -0.290191 -0.465378 -0.285844 
0.491818 0.724029 -0.450629 -0.17559 
0.984726 0.0930426 -0.095861 0.111661 
0.930889 0.155026 -0.17305 0.281899 
-0.615979 0.68986 -0.330641 0.187986 
0.971694 0.14256 -0.17224 -0.0762883 
0.751824 -0.326826 -0.456224 0.346129 
-0.160602 0.384595 -0.329892 0.847033 
0.732493 0.341955 0.517892 0.279837 
0.225878 -0.759265 -0.230814 -0.564996 
0.198144 -0.0346142 -0.934572 0.293455 
0.142969 0.115037 0.07729 0.979976 
0.531766 0.756381 0.16063 -0.345414 
0.417519 -0.150902 0.0199333 0.895829 
-0.2963 0.512603 -0.486652 0.642351 
0.255653 0.315333 0.280104 0.869913 
0.745249 -0.618827 -0.230016 0.0935427 
0.586641 0.627586 -0.118089 -0.498039 
0.946393 0.146124 -0.168734 0.233489 
0.695877 0.193453 -0.106693 0.683336 
0.97735 -0.20635 -0.0466455 -0.00555083 
0.0139363 0.82379 0.542604 -0.163575 
0.738894 -0.575669 -0.298346 -0.183388 
0.299506 0.256046 -0.674244 0.624605 
0.547882 -0.170374 0.152197 -0.804757 
-0.948409 0.135403 -0.1759 0.226376 
0.375634 0.768071 -0.413946 0.312434 
-0.845713 0.506702 0.0924448 -0.139562 
0.926449 0.296351 -0.200853 -0.116303 
0.212162 -0.155511 0.918103 -0.296462 
0.801728 0.0822241 0.575312 -0.139595 
-0.652072 0.431574 -0.623186 -0.0135603 
-0.481942 0.506495 0.463026 -0.544795 
-0.598459 0.512146 0.473394 -0.394274 
0.0666997 0.215509 0.971425 -0.073758 
0.0339778 -0.0745863 -0.871549 -0.48341 
-0.189274 0.0447507 0.785959 -0.586892 
0.355589 -0.914076 -0.194972 -0.0028278 
-0.447447 0.234842 0.652705 -0.564461 
-0.868261 -0.0863308 0.0154631 0.488295 
-0.309679 -0.710557 0.139123 0.616321 
0.139482 0.229078 0.951675 0.149607 
-0.0891246 0.0328872 0.993458 -0.063373 
0.908915 0.254349 -0.299699 -0.139143 
-0.122703 -0.95443 -0.188041 0.196591 
0.956536 -0.171285 -0.149095 0.182953 
0.891714 0.0380684 0.413131 -0.180887 
-0.938685 -0.0591601 -0.0889801 -0.3278 
0.638659 -0.501249 -0.358007 0.461189 
-0.582338 -0.727119 -0.350363 -0.0970905 
0.340997 0.372489 0.0309755 -0.862562 
-0.607223 0.725528 -0.288761 -0.14665 
0.943194 -0.240707 0.0227602 -0.227875 
0.959362 0.105125 -0.103601 -0.240499 
0.591666 -0.0471287 -0.63275 0.49733 
0.88141 -0.287393 0.362902 -0.0939302 
-0.612556 -0.20241 -0.109209 0.756227 
-0.559414 0.193049 -0.0661533 -0.803375 
0.901897 0.233699 0.0361686 -0.361466 
-0.338623 0.883329 0.00947308 0.323999 
0.891395 -0.167268 0.391585 -0.155234 
-0.241877 0.828705 -0.278404 0.420992 
0.950123 -0.282967 0.0722488 -0.109437 
0.765154 -0.489718 -0.375469 0.183681 
-0.130581 -0.370468 0.0109031 -0.919556 
0.783718 0.405853 0.261937 -0.390459 
0.324844 0.926793 0.0692132 -0.175331 
-0.209361 0.557603 -0.674945 0.43554 
0.855009 -0.234086 0.404042 -0.22564 
-0.800956 0.360439 -0.4711 0.0813458 
0.882785 -0.0411178 -0.397526 0.246927 
0.820087 -0.416221 0.392263 0.0186214 
0.788932 0.040598 0.347244 -0.505331 
0.237524 -0.509966 -0.451539 -0.692553 
0.259684 -0.798564 0.490653 0.232636 
0.24403 -0.270772 -0.699982 0.614131 
-0.582498 0.609597 0.256725 -0.472419 
0.986209 -0.100543 -0.00653166 -0.1313 
0.842295 -0.0912887 -0.101755 -0.521394 
0.338136 0.506356 0.741252 0.282511 
-0.0488306 0.435826 -0.892921 0.101797 
-0.611155 -0.535845 -0.58195 -0.0263273 
-0.190707 -0.0690181 -0.514699 0.833038 
0.946651 -0.131853 0.240229 0.169576 
-0.796005 0.443901 0.253303 -0.324294 
0.129999 0.753525 0.643828 0.02803 
0.820203 0.459596 -0.148713 -0.306469 
0.00639614 0.221515 -0.972504 0.0715918 
0.250691 -0.575572 -0.307156 0.71521 
-0.400853 -0.266915 0.685782 0.545689 
-0.0787294 -0.340168 0.224569 -0.909756 
0.828803 -0.256843 0.454305 0.201802 
-0.243989 0.0575051 0.0675771 0.96571 
0.90357 -0.359678 0.230809 -0.0303239 
-0.0282747 -0.801492 0.594266 0.0604936 
0.428274 -0.081108 -0.395379 0.808504 
0.883248 0.0881199 0.0943027 0.450793 
0.210574 0.165991 -0.814744 0.514099 
-0.0128639 0.13509 0.387048 -0.912019 
-0.116778 -0.295932 -0.744273 0.587234 
0.315217 -0.469521 -0.423243 -0.707852 
-0.929216 -0.216995 -0.197785 0.224392 
0.779016 -0.579094 0.019515 0.239591 
0.758099 0.323732 -0.542508 -0.161768 
0.421176 0.61761 0.571979 -0.337651 
0.523996 0.269871 0.210074 -0.780043 
-0.486268 0.254386 0.819753 -0.163819 
0.464155 -0.438803 0.693791 0.332666 
-0.0352929 0.509676 0.723042 -0.464967 
-0.994797 -0.0626172 -0.0553323 0.0582712 
-0.102651 -0.612606 -0.779668 -0.0793337 
0.20338 0.205543 -0.952628 0.0942819 
0.116795 -0.921824 0.176521 0.324715 
0.114545 -0.0642807 0.820712 0.556039 
0.266856 0.737663 0.22674 0.57726 
-0.662332 -0.739896 0.0495605 -0.106835 
0.296618 0.921254 -0.173821 -0.18192 
-0.0798152 0.811807 -0.578397 0.00743802 
-0.432705 0.1236 -0.846602 0.284174 
0.417057 -0.326552 0.224677 0.817892 
-0.0868756 0.504334 -0.15217 0.845544 
0.933811 -0.282837 -0.184985 0.117392 
0.0156384 -0.513482 -0.781246 -0.354607 
-0.441415 -0.824086 0.227515 0.272528 
0.6898 -0.542892 0.394343 -0.271914 