# vtk DataFile Version 2.0
Generated by NetDEM
ASCII 
DATASET POLYDATA
POINTS 500 double
-0.419099 -0.40836 -0.464136 
-0.45 -0.19322 -0.450021 
-0.404242 -0.0129084 -0.460399 
-0.450017 0.10763 -0.450022 
-0.436252 0.350408 -0.450017 
-0.27125 -0.429826 -0.459041 
-0.302755 -0.223347 -0.450017 
-0.190671 -0.0104302 -0.450086 
-0.171768 0.174847 -0.463918 
-0.255664 0.367145 -0.463654 
-0.0552676 -0.397046 -0.461211 
-0.147602 -0.133457 -0.450039 
-0.0547279 -0.0944309 -0.450029 
0.0384758 0.180255 -0.453068 
-0.0289927 0.319008 -0.443516 
0.193073 -0.401607 -0.463072 
0.16972 -0.210216 -0.463381 
0.172573 -0.00374827 -0.462473 
0.161662 0.206487 -0.465044 
0.29705 0.403797 -0.419043 
0.450013 -0.410224 -0.450023 
0.432617 -0.29848 -0.450013 
0.340157 -0.0115162 -0.450008 
0.375833 0.0846574 -0.450022 
0.37222 0.440485 -0.464894 
-0.431364 -0.41126 -0.394125 
-0.449982 -0.272178 -0.388662 
-0.407071 -0.0163586 -0.389157 
-0.444117 0.176919 -0.378107 
-0.450019 0.449462 -0.450075 
-0.337116 -0.406659 -0.407898 
-0.246326 -0.142042 -0.435691 
-0.158701 -0.100855 -0.214809 
-0.304875 0.165099 -0.464959 
-0.151989 0.405393 -0.452722 
-0.0900901 -0.390243 -0.398105 
0.308242 -0.24784 -0.13767 
-0.0459497 -0.017465 -0.312167 
0.030381 0.259719 -0.451414 
0.124229 0.302355 -0.432667 
0.201676 -0.414622 -0.390664 
0.167264 -0.206626 -0.39032 
0.175444 0.0176099 -0.386397 
0.196916 0.113478 -0.455153 
0.286223 0.367945 -0.326336 
0.380205 -0.45001 -0.390525 
0.435368 -0.355251 -0.367744 
0.275361 -0.211362 -0.45002 
0.450002 0.14151 -0.414398 
0.426164 0.341784 -0.456398 
-0.436336 -0.441074 -0.326109 
-0.308321 -0.21551 -0.350487 
-0.30225 -0.00875016 -0.437647 
-0.288554 0.271887 -0.450014 
-0.450025 0.276579 -0.384058 
-0.182991 -0.371258 -0.451718 
0.184459 -0.33718 -0.303628 
-0.23979 -0.0533822 -0.18057 
-0.171948 0.0781718 -0.450348 
-0.350469 0.332709 -0.337205 
0.0445345 -0.438685 -0.449875 
0.205647 -0.284429 -0.161506 
0.204657 0.0588607 -0.214473 
-0.03936 0.223858 -0.395257 
0.254482 0.331661 -0.463965 
0.194217 -0.435554 -0.319647 
0.052665 -0.0970358 -0.450744 
0.160764 0.0626649 -0.332552 
0.269992 0.0646211 -0.441829 
0.112473 0.138056 -0.397093 
0.28579 -0.448676 -0.450007 
0.376551 -0.214566 -0.450075 
0.378787 -0.110101 -0.450045 
0.450006 0.230073 -0.365543 
0.437566 0.257027 -0.459912 
-0.433038 -0.452933 -0.243241 
-0.175784 -0.158924 -0.357563 
-0.237348 -0.00414848 -0.352925 
-0.267024 0.088505 -0.405609 
-0.352103 0.1439 -0.354147 
-0.163052 -0.449422 -0.395596 
-0.125286 -0.0565218 -0.390155 
-0.240185 0.0471721 -0.227149 
-0.0549093 0.129643 -0.446004 
-0.356813 0.382005 -0.406319 
0.0881416 -0.451255 -0.354888 
0.445924 -0.338124 -0.0854028 
-0.18829 -0.236652 -0.45001 
0.0165249 0.0476089 -0.450339 
0.067965 0.398286 -0.4114 
0.259517 -0.4458 -0.246232 
0.152429 -0.319025 -0.40126 
0.118383 0.0692529 -0.272914 
0.265967 0.174285 -0.442193 
0.14272 0.450008 -0.450019 
0.347271 -0.308005 -0.365179 
0.450008 -0.105704 -0.380031 
0.387733 0.156687 -0.333518 
0.331607 0.310202 -0.412302 
0.438512 0.371419 -0.376938 
-0.386179 -0.439647 -0.170323 
-0.368732 -0.359101 -0.12195 
-0.294662 -0.0413337 -0.276535 
-0.364076 0.0678394 -0.417946 
-0.449746 0.431494 -0.351715 
-0.27047 -0.440813 -0.362748 
-0.062352 -0.1597 -0.37467 
-0.247825 0.0390663 -0.1278 
-0.0025098 -0.0249996 -0.397947 
-0.423928 0.242918 -0.463877 
0.0833339 -0.341691 -0.440796 
0.355145 -0.211216 -0.0573125 
0.0412047 -0.120744 -0.352545 
0.0258885 0.0411478 -0.355457 
-0.00309724 0.435489 -0.464054 
0.301449 -0.386162 -0.218842 
0.259273 -0.315517 -0.423834 
0.0362833 0.0686034 -0.26344 
0.249931 0.244246 -0.382397 
0.347888 0.449956 -0.273578 
0.31769 -0.399175 -0.331309 
0.450076 -0.207779 -0.382746 
0.45 -0.0295967 -0.450007 
0.343472 0.211213 -0.404702 
0.399762 0.452465 -0.374326 
-0.46217 -0.451833 -0.126761 
-0.320586 -0.140023 -0.285448 
-0.451172 -0.0288443 -0.321606 
-0.252355 0.192049 -0.394889 
-0.304026 0.450007 -0.365182 
-0.166737 -0.374135 -0.341042 
-0.0844429 -0.221594 -0.450027 
-0.197035 -0.162497 -0.146043 
-0.133829 0.149654 -0.397675 
-0.227924 0.33518 -0.394064 
-0.0909016 -0.309443 -0.451275 
0.285537 -0.320143 -0.0722196 
0.450005 0.0528289 -0.162974 
0.0416698 0.121615 -0.332907 
-0.117812 0.312775 -0.411487 
0.155762 -0.439013 -0.240266 
0.240266 -0.140369 -0.39441 
0.107993 -0.0222158 -0.226042 
0.195966 0.306901 -0.340165 
0.199841 0.385813 -0.397848 
0.449995 -0.441626 -0.31941 
0.331294 -0.173216 -0.371069 
0.25113 -0.0595798 -0.450028 
0.447157 0.0491843 -0.376092 
0.440671 0.409376 -0.300493 
-0.438429 -0.457953 -0.0120083 
-0.227073 -0.173132 -0.272911 
-0.423051 -0.111363 -0.407239 
-0.20651 0.270178 -0.335319 
-0.33835 0.241864 -0.368666 
-0.142261 -0.291075 -0.371532 
0.129172 -0.450019 -0.0940444 
-0.303944 0.367793 -0.188744 
-0.104929 0.275244 -0.330088 
-0.222033 0.461557 -0.451551 
-0.00151807 -0.339073 -0.366389 
0.115622 -0.241501 -0.154182 
-0.179909 -0.070082 -0.307532 
0.0174501 0.200328 -0.304529 
0.014076 0.295256 -0.35074 
0.0747636 -0.409007 -0.273939 
0.137408 -0.0980498 -0.400787 
0.255686 -0.116641 -0.265682 
0.234427 0.185439 -0.326542 
0.138163 0.448427 -0.350143 
0.386214 -0.229848 -0.309116 
0.344147 -0.0668495 -0.366809 
0.320384 0.0547412 -0.372386 
0.405343 0.301384 -0.310341 
0.447122 0.378102 -0.215827 
-0.326815 -0.446091 -0.0910384 
-0.449407 -0.0991339 -0.267472 
-0.35845 0.0110715 -0.248997 
-0.448571 0.0696898 -0.357514 
-0.415575 0.26414 -0.291047 
-0.26505 -0.310794 -0.446225 
-0.181907 -0.275766 -0.26011 
-0.143087 0.400426 -0.0839584 
-0.123962 0.190344 -0.334805 
-0.138477 0.441622 -0.354269 
0.00211358 -0.434758 -0.356768 
0.01598 -0.0951022 -0.259251 
0.0156112 -0.224892 -0.450007 
-0.0255844 0.270938 -0.251171 
-0.00499619 0.40926 -0.370312 
0.0721917 -0.425695 -0.172465 
0.0991363 -0.040881 -0.332305 
0.284383 -0.160723 -0.189938 
0.202082 0.135459 -0.273061 
0.248391 0.450045 -0.283399 
0.449696 -0.308877 -0.280316 
0.45001 -0.148558 -0.289695 
0.364916 0.0383097 -0.284396 
0.319323 0.250519 -0.307585 
0.383953 0.428118 -0.198218 
-0.246205 -0.44441 -0.164075 
-0.443572 0.231824 -0.20069 
-0.292645 0.187713 -0.188021 
-0.189413 0.0766311 -0.343282 
-0.371875 0.449845 -0.29176 
-0.228219 -0.348868 -0.244425 
-0.0436294 -0.259412 -0.315063 
0.0162344 -0.242354 -0.236807 
-0.156177 0.117097 -0.255742 
-0.166226 0.350345 -0.330097 
-0.0451078 -0.384875 -0.293491 
-0.188623 -0.0967091 0.170121 
-0.0295287 0.206118 -0.169484 
-0.0527158 0.102107 -0.331403 
0.104631 0.356073 -0.334208 
0.262795 -0.437853 -0.14307 
0.219678 -0.196677 -0.311455 
0.292145 -0.10679 -0.12619 
0.149565 0.225453 -0.293142 
0.194286 0.363036 -0.26403 
0.407806 -0.391946 -0.243575 
0.441553 -0.225171 -0.225985 
0.433592 -0.0318166 -0.314704 
0.30352 0.116574 -0.294937 
0.409054 0.403249 -0.125363 
-0.256927 -0.333871 -0.153142 
-0.417505 -0.334398 -0.317398 
-0.43267 0.33671 -0.13572 
-0.342453 0.324184 -0.0690837 
-0.4488 0.42346 -0.0129251 
-0.142219 -0.419283 -0.257096 
-0.0509717 0.138055 -0.0702959 
-0.25952 -0.175056 -0.0307555 
-0.182652 0.176476 -0.187862 
-0.158738 0.339121 -0.22273 
-0.0642549 -0.383724 -0.20845 
-0.139095 -0.141076 -0.0215077 
-0.111413 -0.0237709 -0.172061 
-0.00752181 0.109955 -0.198687 
0.0264533 0.447506 -0.279224 
0.297667 -0.32914 -0.172345 
0.24957 -0.291556 -0.341336 
0.349571 -0.0528563 -0.0750047 
0.152907 0.276045 -0.226999 
0.20889 0.404727 -0.140311 
0.357699 -0.450016 -0.172341 
0.450014 -0.199214 -0.0865366 
0.337582 0.12941 -0.0119537 
0.45 0.151722 -0.179315 
0.424807 0.386318 -0.0448488 
-0.296394 -0.320755 -0.348385 
-0.120085 -0.201693 -0.28639 
-0.326666 -0.0162692 -0.148124 
-0.220181 0.199878 -0.265527 
-0.421528 0.44578 -0.205045 
-0.249772 -0.430088 -0.272647 
0.0942173 -0.280359 -0.309006 
-0.307349 0.256769 -0.134059 
-0.245688 0.300329 -0.209945 
-0.149467 0.442582 -0.247105 
0.0145486 -0.380883 -0.166097 
0.450011 -0.390604 -0.000372072 
0.076437 0.438414 -0.188673 
-0.0744146 0.406074 -0.323574 
-0.0397015 0.447832 -0.220433 
0.356114 -0.394658 -0.0932617 
0.372789 -0.0982956 -0.17437 
0.19163 -0.0246843 -0.291025 
0.219633 0.200933 -0.206304 
0.0884981 0.244236 -0.367721 
0.353715 -0.304105 -0.250552 
0.348268 -0.152111 -0.259028 
0.449997 0.0847007 -0.258543 
0.449591 0.213331 -0.266979 
0.407752 0.451198 -0.021116 
-0.339653 -0.393848 0.00853601 
-0.138463 -0.345477 -0.153151 
-0.434782 -0.112056 -0.18352 
-0.450009 0.0949223 -0.176744 
-0.344163 0.197414 -0.270042 
-0.146409 -0.444129 -0.172667 
-0.0657464 -0.282906 -0.191704 
-0.227411 0.449972 -0.300934 
-0.282398 0.309754 -0.282693 
-0.226191 0.435391 -0.181664 
0.0402797 -0.406749 -0.0805722 
-0.115502 0.450001 0.117592 
0.0346285 0.182701 -0.0964513 
-0.0732037 0.307006 -0.202621 
0.00743789 0.366126 -0.196537 
0.271363 -0.415712 -0.0335334 
0.0288555 -0.0927415 -0.0149634 
0.145267 -0.0392037 -0.142229 
0.287267 0.17439 -0.150667 
0.0642354 0.26044 -0.163111 
0.400568 -0.282634 -0.15514 
0.450007 -0.143136 -0.169445 
0.330545 -0.0540942 -0.26771 
0.450009 0.278426 -0.191085 
0.301222 0.414415 -0.0859143 
-0.29102 -0.353014 -0.0625372 
-0.421029 -8.58245e-05 -0.188317 
-0.39426 -0.293309 -0.0705821 
-0.429631 0.138117 -0.287088 
-0.450005 0.450004 -0.109304 
-0.158783 -0.424538 -0.0725703 
-0.134648 -0.318591 -0.056915 
-0.281334 0.0915756 -0.30671 
-0.134471 0.276721 -0.112103 
-0.246769 0.383636 -0.102276 
-0.0224729 -0.425578 -0.0179634 
-0.407807 -0.17411 -0.320551 
0.00652032 -0.0022984 -0.223234 
-0.0413571 0.289252 -0.0982326 
-0.00946899 0.443831 -0.131777 
0.151022 -0.388072 -0.0159657 
0.450107 0.00333174 0.0136059 
0.0756121 -0.0278158 -0.0763868 
0.300959 0.337595 -0.218625 
0.283396 0.449536 -0.189687 
0.373316 -0.450006 -0.0245795 
0.437468 -0.0490531 0.0859077 
0.246224 -0.0547995 -0.35028 
0.346378 0.255415 -0.200435 
0.438631 0.451866 0.0712772 
-0.351085 -0.214134 -0.0134963 
-0.391464 -0.273843 -0.172424 
-0.414797 0.101807 -0.0966247 
-0.388396 0.319843 -0.212566 
-0.450012 0.361804 -0.279998 
-0.173305 -0.435416 0.0464969 
-0.0598134 -0.150666 -0.225053 
-0.223228 0.292978 -0.0938972 
-0.10128 0.388127 -0.170284 
-0.0745314 0.43903 -0.0505501 
-0.091741 -0.448787 0.0243997 
0.0805263 -0.165992 -0.230831 
-0.070843 0.0658543 -0.136562 
0.0361747 0.249559 -0.0383055 
0.00761925 0.423349 -0.0597734 
0.137755 -0.340546 -0.108475 
0.178153 -0.189862 -0.22698 
0.125189 0.15006 -0.189207 
0.313279 0.220909 -0.0672414 
0.170417 0.450003 -0.220754 
0.449998 -0.416918 -0.152612 
0.319462 -0.265564 0.0186598 
0.410707 -0.0208452 -0.217994 
0.368264 0.16436 -0.23557 
0.416474 0.272392 0.166956 
-0.420199 -0.379903 0.0555086 
-0.449999 -0.217055 -0.240714 
-0.365519 0.218871 -0.083009 
-0.44768 0.0617485 -0.00595705 
-0.450011 0.193429 -0.108598 
-0.224675 -0.379727 -0.00321865 
-0.277543 -0.10822 -0.102921 
-0.324109 -0.10618 -0.191387 
-0.190875 0.355933 -0.00263783 
-0.133673 0.400382 0.0223016 
0.0387326 -0.188105 -0.129693 
-0.150749 -0.249372 -0.128406 
0.220048 0.131512 -0.095284 
0.106252 0.319592 -0.0552379 
-0.0218706 0.439662 0.031483 
0.0788801 -0.215988 -0.0226736 
0.454202 -0.0687084 -0.112113 
0.281717 0.0634073 -0.0306649 
0.188246 0.225924 -0.11989 
0.102934 0.335052 0.0732948 
0.397908 -0.0805261 -0.00150425 
0.449648 -0.268702 -0.0135251 
0.364987 0.0106087 -0.131538 
0.427219 0.113353 -0.0862731 
0.324999 0.316465 -0.122069 
-0.427605 -0.182695 -0.1352 
-0.450007 -0.238061 -0.0335915 
-0.398134 -0.00684546 -0.0931369 
-0.450001 0.281191 0.0527589 
-0.341183 0.450001 -0.145659 
-0.238109 -0.302164 0.0616287 
-0.273905 -0.273286 -0.0187896 
-0.325731 0.06563 -0.0524832 
-0.119673 0.218505 -0.0447488 
-0.12463 0.191324 0.0261332 
0.0268555 -0.311517 -0.0167182 
-0.120294 -0.105866 -0.115664 
0.108849 0.113767 -0.0986046 
-0.156766 0.104689 -0.126893 
0.0422761 0.406962 0.110026 
0.0403673 -0.291808 -0.147776 
0.283068 -0.0744902 -0.0164057 
0.265962 0.0235552 -0.102612 
0.185467 0.283259 -0.0402305 
0.145557 0.329447 -0.158445 
0.327462 -0.343018 0.0814019 
0.257228 -0.179391 -0.0734951 
0.416379 0.190093 -0.0230985 
0.406817 0.237793 -0.110577 
0.436903 0.281552 -0.0232767 
-0.335833 -0.343611 0.0910929 
-0.337495 -0.229497 -0.243992 
-0.448378 -0.0619356 -0.0235497 
-0.449967 0.130375 0.0688388 
-0.278853 0.367488 -0.00522302 
-0.0636313 -0.182533 -0.139583 
-0.177938 -0.232929 -0.0288561 
-0.235098 -0.00124358 -0.0372006 
-0.285335 0.219206 -0.0152224 
-0.204345 0.412585 0.0865666 
0.207982 -0.0597762 -0.0991165 
0.000974931 -0.0812984 -0.161356 
-0.137754 -0.0325315 0.112707 
-0.0276501 0.24598 0.0307767 
-0.0729612 0.345601 0.0689623 
0.314933 -0.441183 0.0672381 
0.330162 -0.210711 0.103253 
0.176067 0.0388466 -0.12945 
0.264105 0.287408 0.00577745 
0.239666 0.450003 -0.0150398 
0.448695 -0.166498 0.00793515 
0.316351 0.361769 -0.0071402 
0.450001 0.088648 0.0080903 
0.43196 0.163375 0.0720364 
0.383752 0.364937 0.0646028 
-0.40194 -0.393162 0.144084 
-0.431117 -0.264838 0.0608823 
-0.195995 -0.0698194 -0.0751055 
-0.439329 0.274807 -0.0480587 
-0.387317 0.350137 0.0164253 
-0.209843 -0.392452 0.097523 
-0.253822 -0.0104148 0.112177 
-0.0425912 -0.0151655 -0.0852071 
-0.276607 0.136725 -0.10374 
-0.286413 0.397857 0.154945 
0.189078 -0.435169 0.0526002 
0.118097 -0.136417 -0.143008 
0.0305413 0.053596 -0.118635 
-0.0887008 0.108442 0.0661807 
-0.0416413 0.40789 0.155046 
0.310462 -0.415072 0.162152 
0.203602 -0.116513 -0.00359134 
0.0982601 0.19128 -0.00569522 
0.266751 0.170175 0.140662 
0.154789 0.418152 -0.057305 
0.4124 -0.450019 0.0707117 
0.332836 -0.16133 0.0264499 
-0.212279 0.101796 -0.0500464 
0.361794 0.211188 0.124854 
0.318509 0.448305 0.0563516 
-0.44168 -0.450339 0.175582 
-0.276779 0.0513227 0.0369437 
-0.393763 -0.000901183 0.0345918 
-0.416987 0.155637 -0.0221217 
-0.450001 0.416987 0.0868396 
-0.295916 -0.447457 0.0665276 
-0.237605 -0.153381 0.0643724 
-0.171349 0.0321769 0.0322115 
-0.338749 0.126343 0.0382302 
-0.429416 0.4044 0.188769 
0.23859 -0.248751 0.118277 
-0.0466047 -0.144701 -0.0593519 
-0.0902221 0.0620029 -0.0185925 
0.0227201 0.334134 0.0128957 
0.0116608 0.304082 0.102339 
0.190223 -0.246341 -0.07383 
0.213386 -0.293689 0.0284329 
0.189773 -0.0106815 -0.0240701 
0.191532 0.171046 -0.00139196 
0.0801324 0.425943 0.00874073 
0.426514 -0.3531 0.0908141 
0.44999 -0.146239 0.105841 
0.34531 0.00694312 0.0174381 
0.271264 0.167197 0.0526475 
0.45132 0.35334 0.116236 
-0.312246 -0.310067 0.155188 
-0.202787 -0.0621648 0.0427438 
-0.437969 -0.00817928 0.138922 
-0.371596 0.220723 0.0387478 
-0.360873 0.449948 0.117976 
-0.175581 -0.241299 0.0698407 
-0.191286 -0.193176 0.143894 
-0.0871831 -0.0271566 0.0265677 
-0.308272 0.308535 0.067842 
-0.216038 0.23782 0.0564567 
-0.0476297 -0.117181 0.0370279 
-0.0174221 -0.254921 -0.0788485 
0.0183181 0.0026704 -0.00793866 
0.234135 -0.158856 0.065575 
0.012416 0.448216 0.218945 
0.215281 -0.36611 0.109453 
0.445527 -0.294333 0.15833 
0.306849 0.0629888 0.0937544 
0.178692 0.248517 0.0607603 
0.183635 0.366157 0.023096 
0.406455 -0.4085 0.171606 
0.448828 -0.202361 0.188594 
0.324186 -0.0718571 0.0767218 
0.398767 0.0914542 0.133078 
0.231959 0.424552 0.0962247 
VERTICES 500 1000
1 0
1 1
1 2
1 3
1 4
1 5
1 6
1 7
1 8
1 9
1 10
1 11
1 12
1 13
1 14
1 15
1 16
1 17
1 18
1 19
1 20
1 21
1 22
1 23
1 24
1 25
1 26
1 27
1 28
1 29
1 30
1 31
1 32
1 33
1 34
1 35
1 36
1 37
1 38
1 39
1 40
1 41
1 42
1 43
1 44
1 45
1 46
1 47
1 48
1 49
1 50
1 51
1 52
1 53
1 54
1 55
1 56
1 57
1 58
1 59
1 60
1 61
1 62
1 63
1 64
1 65
1 66
1 67
1 68
1 69
1 70
1 71
1 72
1 73
1 74
1 75
1 76
1 77
1 78
1 79
1 80
1 81
1 82
1 83
1 84
1 85
1 86
1 87
1 88
1 89
1 90
1 91
1 92
1 93
1 94
1 95
1 96
1 97
1 98
1 99
1 100
1 101
1 102
1 103
1 104
1 105
1 106
1 107
1 108
1 109
1 110
1 111
1 112
1 113
1 114
1 115
1 116
1 117
1 118
1 119
1 120
1 121
1 122
1 123
1 124
1 125
1 126
1 127
1 128
1 129
1 130
1 131
1 132
1 133
1 134
1 135
1 136
1 137
1 138
1 139
1 140
1 141
1 142
1 143
1 144
1 145
1 146
1 147
1 148
1 149
1 150
1 151
1 152
1 153
1 154
1 155
1 156
1 157
1 158
1 159
1 160
1 161
1 162
1 163
1 164
1 165
1 166
1 167
1 168
1 169
1 170
1 171
1 172
1 173
1 174
1 175
1 176
1 177
1 178
1 179
1 180
1 181
1 182
1 183
1 184
1 185
1 186
1 187
1 188
1 189
1 190
1 191
1 192
1 193
1 194
1 195
1 196
1 197
1 198
1 199
1 200
1 201
1 202
1 203
1 204
1 205
1 206
1 207
1 208
1 209
1 210
1 211
1 212
1 213
1 214
1 215
1 216
1 217
1 218
1 219
1 220
1 221
1 222
1 223
1 224
1 225
1 226
1 227
1 228
1 229
1 230
1 231
1 232
1 233
1 234
1 235
1 236
1 237
1 238
1 239
1 240
1 241
1 242
1 243
1 244
1 245
1 246
1 247
1 248
1 249
1 250
1 251
1 252
1 253
1 254
1 255
1 256
1 257
1 258
1 259
1 260
1 261
1 262
1 263
1 264
1 265
1 266
1 267
1 268
1 269
1 270
1 271
1 272
1 273
1 274
1 275
1 276
1 277
1 278
1 279
1 280
1 281
1 282
1 283
1 284
1 285
1 286
1 287
1 288
1 289
1 290
1 291
1 292
1 293
1 294
1 295
1 296
1 297
1 298
1 299
1 300
1 301
1 302
1 303
1 304
1 305
1 306
1 307
1 308
1 309
1 310
1 311
1 312
1 313
1 314
1 315
1 316
1 317
1 318
1 319
1 320
1 321
1 322
1 323
1 324
1 325
1 326
1 327
1 328
1 329
1 330
1 331
1 332
1 333
1 334
1 335
1 336
1 337
1 338
1 339
1 340
1 341
1 342
1 343
1 344
1 345
1 346
1 347
1 348
1 349
1 350
1 351
1 352
1 353
1 354
1 355
1 356
1 357
1 358
1 359
1 360
1 361
1 362
1 363
1 364
1 365
1 366
1 367
1 368
1 369
1 370
1 371
1 372
1 373
1 374
1 375
1 376
1 377
1 378
1 379
1 380
1 381
1 382
1 383
1 384
1 385
1 386
1 387
1 388
1 389
1 390
1 391
1 392
1 393
1 394
1 395
1 396
1 397
1 398
1 399
1 400
1 401
1 402
1 403
1 404
1 405
1 406
1 407
1 408
1 409
1 410
1 411
1 412
1 413
1 414
1 415
1 416
1 417
1 418
1 419
1 420
1 421
1 422
1 423
1 424
1 425
1 426
1 427
1 428
1 429
1 430
1 431
1 432
1 433
1 434
1 435
1 436
1 437
1 438
1 439
1 440
1 441
1 442
1 443
1 444
1 445
1 446
1 447
1 448
1 449
1 450
1 451
1 452
1 453
1 454
1 455
1 456
1 457
1 458
1 459
1 460
1 461
1 462
1 463
1 464
1 465
1 466
1 467
1 468
1 469
1 470
1 471
1 472
1 473
1 474
1 475
1 476
1 477
1 478
1 479
1 480
1 481
1 482
1 483
1 484
1 485
1 486
1 487
1 488
1 489
1 490
1 491
1 492
1 493
1 494
1 495
1 496
1 497
1 498
1 499
POINT_DATA 500
SCALARS id int 1
LOOKUP_TABLE default
0
1
2
3
4
5
6
7
8
9
10
11
12
13
14
15
16
17
18
19
20
21
22
23
24
25
26
27
28
29
30
31
32
33
34
35
36
37
38
39
40
41
42
43
44
45
46
47
48
49
50
51
52
53
54
55
56
57
58
59
60
61
62
63
64
65
66
67
68
69
70
71
72
73
74
75
76
77
78
79
80
81
82
83
84
85
86
87
88
89
90
91
92
93
94
95
96
97
98
99
100
101
102
103
104
105
106
107
108
109
110
111
112
113
114
115
116
117
118
119
120
121
122
123
124
125
126
127
128
129
130
131
132
133
134
135
136
137
138
139
140
141
142
143
144
145
146
147
148
149
150
151
152
153
154
155
156
157
158
159
160
161
162
163
164
165
166
167
168
169
170
171
172
173
174
175
176
177
178
179
180
181
182
183
184
185
186
187
188
189
190
191
192
193
194
195
196
197
198
199
200
201
202
203
204
205
206
207
208
209
210
211
212
213
214
215
216
217
218
219
220
221
222
223
224
225
226
227
228
229
230
231
232
233
234
235
236
237
238
239
240
241
242
243
244
245
246
247
248
249
250
251
252
253
254
255
256
257
258
259
260
261
262
263
264
265
266
267
268
269
270
271
272
273
274
275
276
277
278
279
280
281
282
283
284
285
286
287
288
289
290
291
292
293
294
295
296
297
298
299
300
301
302
303
304
305
306
307
308
309
310
311
312
313
314
315
316
317
318
319
320
321
322
323
324
325
326
327
328
329
330
331
332
333
334
335
336
337
338
339
340
341
342
343
344
345
346
347
348
349
350
351
352
353
354
355
356
357
358
359
360
361
362
363
364
365
366
367
368
369
370
371
372
373
374
375
376
377
378
379
380
381
382
383
384
385
386
387
388
389
390
391
392
393
394
395
396
397
398
399
400
401
402
403
404
405
406
407
408
409
410
411
412
413
414
415
416
417
418
419
420
421
422
423
424
425
426
427
428
429
430
431
432
433
434
435
436
437
438
439
440
441
442
443
444
445
446
447
448
449
450
451
452
453
454
455
456
457
458
459
460
461
462
463
464
465
466
467
468
469
470
471
472
473
474
475
476
477
478
479
480
481
482
483
484
485
486
487
488
489
490
491
492
493
494
495
496
497
498
499
SCALARS type int 1
LOOKUP_TABLE default
0
0
0
0
0
0
0
0
0
0
0
0
0
0
0
0
0
0
0
0
0
0
0
0
0
0
0
0
0
0
0
0
0
0
0
0
0
0
0
0
0
0
0
0
0
0
0
0
0
0
0
0
0
0
0
0
0
0
0
0
0
0
0
0
0
0
0
0
0
0
0
0
0
0
0
0
0
0
0
0
0
0
0
0
0
0
0
0
0
0
0
0
0
0
0
0
0
0
0
0
0
0
0
0
0
0
0
0
0
0
0
0
0
0
0
0
0
0
0
0
0
0
0
0
0
0
0
0
0
0
0
0
0
0
0
0
0
0
0
0
0
0
0
0
0
0
0
0
0
0
0
0
0
0
0
0
0
0
0
0
0
0
0
0
0
0
0
0
0
0
0
0
0
0
0
0
0
0
0
0
0
0
0
0
0
0
0
0
0
0
0
0
0
0
0
0
0
0
0
0
0
0
0
0
0
0
0
0
0
0
0
0
0
0
0
0
0
0
0
0
0
0
0
0
0
0
0
0
0
0
0
0
0
0
0
0
0
0
0
0
0
0
0
0
0
0
0
0
0
0
0
0
0
0
0
0
0
0
0
0
0
0
0
0
0
0
0
0
0
0
0
0
0
0
0
0
0
0
0
0
0
0
0
0
0
0
0
0
0
0
0
0
0
0
0
0
0
0
0
0
0
0
0
0
0
0
0
0
0
0
0
0
0
0
0
0
0
0
0
0
0
0
0
0
0
0
0
0
0
0
0
0
0
0
0
0
0
0
0
0
0
0
0
0
0
0
0
0
0
0
0
0
0
0
0
0
0
0
0
0
0
0
0
0
0
0
0
0
0
0
0
0
0
0
0
0
0
0
0
0
0
0
0
0
0
0
0
0
0
0
0
0
0
0
0
0
0
0
0
0
0
0
0
0
0
0
0
0
0
0
0
0
0
0
0
0
0
0
0
0
0
0
0
0
0
0
0
0
0
0
0
0
0
0
0
0
0
0
0
0
0
0
0
0
0
0
0
0
0
0
0
0
0
0
0
0
0
0
0
0
0
0
0
0
0
0
0
0
0
0
0
0
0
0
0
0
0
0
0
0
0
0
0
0
0
0
0
0
0
0
0
0
0
0
0
0
0
0
0
0
SCALARS damp_viscous double 1
LOOKUP_TABLE default
0
0
0
0
0
0
0
0
0
0
0
0
0
0
0
0
0
0
0
0
0
0
0
0
0
0
0
0
0
0
0
0
0
0
0
0
0
0
0
0
0
0
0
0
0
0
0
0
0
0
0
0
0
0
0
0
0
0
0
0
0
0
0
0
0
0
0
0
0
0
0
0
0
0
0
0
0
0
0
0
0
0
0
0
0
0
0
0
0
0
0
0
0
0
0
0
0
0
0
0
0
0
0
0
0
0
0
0
0
0
0
0
0
0
0
0
0
0
0
0
0
0
0
0
0
0
0
0
0
0
0
0
0
0
0
0
0
0
0
0
0
0
0
0
0
0
0
0
0
0
0
0
0
0
0
0
0
0
0
0
0
0
0
0
0
0
0
0
0
0
0
0
0
0
0
0
0
0
0
0
0
0
0
0
0
0
0
0
0
0
0
0
0
0
0
0
0
0
0
0
0
0
0
0
0
0
0
0
0
0
0
0
0
0
0
0
0
0
0
0
0
0
0
0
0
0
0
0
0
0
0
0
0
0
0
0
0
0
0
0
0
0
0
0
0
0
0
0
0
0
0
0
0
0
0
0
0
0
0
0
0
0
0
0
0
0
0
0
0
0
0
0
0
0
0
0
0
0
0
0
0
0
0
0
0
0
0
0
0
0
0
0
0
0
0
0
0
0
0
0
0
0
0
0
0
0
0
0
0
0
0
0
0
0
0
0
0
0
0
0
0
0
0
0
0
0
0
0
0
0
0
0
0
0
0
0
0
0
0
0
0
0
0
0
0
0
0
0
0
0
0
0
0
0
0
0
0
0
0
0
0
0
0
0
0
0
0
0
0
0
0
0
0
0
0
0
0
0
0
0
0
0
0
0
0
0
0
0
0
0
0
0
0
0
0
0
0
0
0
0
0
0
0
0
0
0
0
0
0
0
0
0
0
0
0
0
0
0
0
0
0
0
0
0
0
0
0
0
0
0
0
0
0
0
0
0
0
0
0
0
0
0
0
0
0
0
0
0
0
0
0
0
0
0
0
0
0
0
0
0
0
0
0
0
0
0
0
0
0
0
0
0
0
0
0
0
0
0
0
0
0
0
0
0
0
0
0
0
0
0
0
0
0
0
0
0
0
0
0
0
SCALARS damp_numerical double 1
LOOKUP_TABLE default
0.5
0.5
0.5
0.5
0.5
0.5
0.5
0.5
0.5
0.5
0.5
0.5
0.5
0.5
0.5
0.5
0.5
0.5
0.5
0.5
0.5
0.5
0.5
0.5
0.5
0.5
0.5
0.5
0.5
0.5
0.5
0.5
0.5
0.5
0.5
0.5
0.5
0.5
0.5
0.5
0.5
0.5
0.5
0.5
0.5
0.5
0.5
0.5
0.5
0.5
0.5
0.5
0.5
0.5
0.5
0.5
0.5
0.5
0.5
0.5
0.5
0.5
0.5
0.5
0.5
0.5
0.5
0.5
0.5
0.5
0.5
0.5
0.5
0.5
0.5
0.5
0.5
0.5
0.5
0.5
0.5
0.5
0.5
0.5
0.5
0.5
0.5
0.5
0.5
0.5
0.5
0.5
0.5
0.5
0.5
0.5
0.5
0.5
0.5
0.5
0.5
0.5
0.5
0.5
0.5
0.5
0.5
0.5
0.5
0.5
0.5
0.5
0.5
0.5
0.5
0.5
0.5
0.5
0.5
0.5
0.5
0.5
0.5
0.5
0.5
0.5
0.5
0.5
0.5
0.5
0.5
0.5
0.5
0.5
0.5
0.5
0.5
0.5
0.5
0.5
0.5
0.5
0.5
0.5
0.5
0.5
0.5
0.5
0.5
0.5
0.5
0.5
0.5
0.5
0.5
0.5
0.5
0.5
0.5
0.5
0.5
0.5
0.5
0.5
0.5
0.5
0.5
0.5
0.5
0.5
0.5
0.5
0.5
0.5
0.5
0.5
0.5
0.5
0.5
0.5
0.5
0.5
0.5
0.5
0.5
0.5
0.5
0.5
0.5
0.5
0.5
0.5
0.5
0.5
0.5
0.5
0.5
0.5
0.5
0.5
0.5
0.5
0.5
0.5
0.5
0.5
0.5
0.5
0.5
0.5
0.5
0.5
0.5
0.5
0.5
0.5
0.5
0.5
0.5
0.5
0.5
0.5
0.5
0.5
0.5
0.5
0.5
0.5
0.5
0.5
0.5
0.5
0.5
0.5
0.5
0.5
0.5
0.5
0.5
0.5
0.5
0.5
0.5
0.5
0.5
0.5
0.5
0.5
0.5
0.5
0.5
0.5
0.5
0.5
0.5
0.5
0.5
0.5
0.5
0.5
0.5
0.5
0.5
0.5
0.5
0.5
0.5
0.5
0.5
0.5
0.5
0.5
0.5
0.5
0.5
0.5
0.5
0.5
0.5
0.5
0.5
0.5
0.5
0.5
0.5
0.5
0.5
0.5
0.5
0.5
0.5
0.5
0.5
0.5
0.5
0.5
0.5
0.5
0.5
0.5
0.5
0.5
0.5
0.5
0.5
0.5
0.5
0.5
0.5
0.5
0.5
0.5
0.5
0.5
0.5
0.5
0.5
0.5
0.5
0.5
0.5
0.5
0.5
0.5
0.5
0.5
0.5
0.5
0.5
0.5
0.5
0.5
0.5
0.5
0.5
0.5
0.5
0.5
0.5
0.5
0.5
0.5
0.5
0.5
0.5
0.5
0.5
0.5
0.5
0.5
0.5
0.5
0.5
0.5
0.5
0.5
0.5
0.5
0.5
0.5
0.5
0.5
0.5
0.5
0.5
0.5
0.5
0.5
0.5
0.5
0.5
0.5
0.5
0.5
0.5
0.5
0.5
0.5
0.5
0.5
0.5
0.5
0.5
0.5
0.5
0.5
0.5
0.5
0.5
0.5
0.5
0.5
0.5
0.5
0.5
0.5
0.5
0.5
0.5
0.5
0.5
0.5
0.5
0.5
0.5
0.5
0.5
0.5
0.5
0.5
0.5
0.5
0.5
0.5
0.5
0.5
0.5
0.5
0.5
0.5
0.5
0.5
0.5
0.5
0.5
0.5
0.5
0.5
0.5
0.5
0.5
0.5
0.5
0.5
0.5
0.5
0.5
0.5
0.5
0.5
0.5
0.5
0.5
0.5
0.5
0.5
0.5
0.5
0.5
0.5
0.5
0.5
0.5
0.5
0.5
0.5
0.5
0.5
0.5
0.5
0.5
0.5
0.5
0.5
0.5
0.5
0.5
0.5
0.5
0.5
0.5
0.5
0.5
0.5
0.5
0.5
0.5
0.5
0.5
0.5
0.5
0.5
0.5
0.5
0.5
0.5
0.5
0.5
0.5
0.5
0.5
0.5
0.5
0.5
0.5
0.5
0.5
0.5
0.5
0.5
SCALARS quat double 4
LOOKUP_TABLE default
0.962619 0.0899633 -0.0564948 0.249159 
0.788461 0.136924 0.599577 0.00939411 
0.985492 0.110842 -0.0281197 -0.125417 
-0.373062 -0.496166 -0.531666 -0.576173 
0.101193 0.707696 -0.40883 0.56726 
0.805538 -0.281323 -0.20088 0.481262 
0.0600843 -0.25787 -0.363593 0.893137 
0.874864 0.0493954 0.349125 0.332091 
-0.094015 0.420884 0.901769 -0.0288023 
0.0585745 0.0887808 0.0055957 0.994312 
0.928956 -0.13648 -0.0831103 0.333927 
0.141993 -0.921992 -0.194399 -0.303279 
0.0673511 0.414341 -0.0618595 0.905516 
0.601069 0.709253 0.353732 -0.102713 
0.333001 0.821728 -0.215902 0.408973 
0.996422 0.0727328 -0.0403523 0.014973 
0.641468 0.0557801 -0.0350412 0.764317 
0.990035 0.0640424 -0.0229466 0.123302 
0.975059 0.111596 -0.0919465 0.168382 
-0.756548 0.17956 0.619792 0.106074 
0.833972 0.13723 0.507974 -0.166198 
-0.289826 0.851221 -0.289317 0.328207 
0.785485 -0.29009 -0.4656 -0.286493 
0.490906 0.724577 -0.44989 -0.177759 
0.985189 0.0916074 -0.0960874 0.108529 
0.930993 0.155233 -0.173054 0.281437 
-0.613959 0.691754 -0.330162 0.188478 
0.971647 0.143189 -0.170992 -0.0784942 
0.739012 -0.337495 -0.459012 0.359537 
-0.160456 0.384273 -0.331326 0.846647 
0.733427 0.342832 0.515564 0.280614 
0.272061 -0.755353 -0.193396 -0.563935 
0.192195 -0.0365567 -0.936179 0.292052 
0.147666 0.115979 0.0770352 0.979188 
0.531369 0.756482 0.160321 -0.345947 
0.417368 -0.150972 0.0214925 0.895851 
-0.294902 0.51401 -0.488488 0.640474 
0.255408 0.315951 0.280226 0.869721 
0.745204 -0.61827 -0.232609 0.091133 
0.585755 0.629261 -0.117709 -0.497058 
0.946763 0.143969 -0.166771 0.234732 
0.695578 0.192999 -0.106759 0.683758 
0.977306 -0.206603 -0.0466281 -0.0038285 
0.01324 0.822121 0.545257 -0.16321 
0.738039 -0.577001 -0.298385 -0.182576 
0.301007 0.256486 -0.674819 0.62308 
0.547556 -0.171505 0.151008 -0.804962 
-0.948619 0.135679 -0.176166 0.225119 
0.37575 0.769483 -0.412095 0.311264 
-0.84249 0.512351 0.0931882 -0.137926 
0.926422 0.296183 -0.202094 -0.114786 
0.232957 -0.155656 0.911929 -0.299813 
0.803823 0.0691976 0.580617 -0.109384 
-0.652925 0.431289 -0.622463 -0.0147753 
-0.482415 0.506571 0.463053 -0.544282 
-0.598721 0.510691 0.473196 -0.395996 
0.0696942 0.212811 0.971462 -0.0781999 
0.040125 -0.0756569 -0.868822 -0.487662 
-0.18864 0.0467566 0.785554 -0.587481 
0.357782 -0.91245 -0.198564 -0.00028293 
-0.44738 0.23359 0.652116 -0.565713 
-0.866817 -0.0852787 0.013547 0.491093 
-0.310047 -0.710436 0.139817 0.616119 
0.135067 0.228509 0.952885 0.146805 
-0.0853699 0.0336628 0.993958 -0.0602253 
0.909016 0.253117 -0.300199 -0.139653 
-0.12302 -0.954236 -0.188598 0.196801 
0.9571 -0.170224 -0.147256 0.182483 
0.891581 0.0368301 0.413439 -0.181095 
-0.937768 -0.0625691 -0.092443 -0.328834 
0.639436 -0.493456 -0.351988 0.472998 
-0.580434 -0.729648 -0.348854 -0.0949247 
0.341603 0.37226 0.0308325 -0.862426 
-0.606424 0.725917 -0.290591 -0.1444 
0.94303 -0.241537 0.022998 -0.227651 
0.959706 0.105709 -0.104073 -0.238662 
0.592484 -0.0502329 -0.630937 0.498355 
0.88181 -0.285746 0.362604 -0.0963252 
-0.60992 -0.203757 -0.110561 0.757797 
-0.55637 0.194601 -0.0705853 -0.804736 
0.901157 0.231454 0.0392838 -0.364419 
-0.337198 0.883146 0.00995119 0.325964 
0.89333 -0.166092 0.387835 -0.154786 
-0.238914 0.829754 -0.277551 0.421182 
0.949836 -0.286702 0.0609672 -0.109067 
0.764982 -0.488375 -0.377217 0.184393 
-0.13325 -0.367047 0.0211985 -0.920365 
0.784416 0.404811 0.261808 -0.390225 
0.324805 0.92668 0.0694461 -0.175906 
-0.206487 0.55825 -0.673011 0.439062 
0.855894 -0.232514 0.403421 -0.225022 
-0.804233 0.355589 -0.470271 0.0749128 
0.882392 -0.0381435 -0.397723 0.248485 
0.818728 -0.419459 0.391747 0.0165303 
0.789164 0.0396603 0.34813 -0.504433 
0.237756 -0.509811 -0.450651 -0.693165 
0.261997 -0.798193 0.488989 0.234807 
0.244147 -0.270388 -0.699509 0.614793 
-0.581526 0.610047 0.252013 -0.475562 
0.986162 -0.0992311 -0.00560435 -0.132688 
0.842286 -0.0897686 -0.0987945 -0.52224 
0.332781 0.507477 0.741696 0.285675 
-0.0448426 0.434879 -0.893841 0.0995934 
-0.613646 -0.544925 -0.570794 -0.0262762 
-0.190067 -0.0705815 -0.511915 0.834767 
0.94575 -0.135236 0.24034 0.171769 
-0.794894 0.445704 0.253889 -0.324085 
0.128485 0.753256 0.644605 0.0241198 
0.819969 0.458833 -0.145466 -0.309779 
0.00580732 0.220447 -0.972733 0.0718285 
0.252279 -0.576001 -0.306163 0.714732 
-0.397509 -0.273197 0.685771 0.545039 
-0.0787864 -0.342651 0.226163 -0.908423 
0.828118 -0.256721 0.456035 0.200867 
-0.244181 0.0589449 0.0697252 0.965422 
0.903045 -0.360012 0.232816 -0.0264219 
-0.0239974 -0.801881 0.594102 0.0587654 
0.430765 -0.0812539 -0.397072 0.806333 
0.883395 0.0915591 0.0937267 0.449939 
0.209986 0.167919 -0.816557 0.510827 
-0.0143017 0.130997 0.38972 -0.911457 
-0.118343 -0.292683 -0.742112 0.591271 
0.316554 -0.468681 -0.422971 -0.707974 
-0.929432 -0.217453 -0.197409 0.223385 
0.777987 -0.581149 0.0166348 0.238171 
0.757888 0.322194 -0.544819 -0.158017 
0.4188 0.61774 0.57243 -0.339598 
0.523264 0.268299 0.209697 -0.781177 
-0.482558 0.255652 0.821309 -0.165021 
0.461254 -0.43777 0.69708 0.331182 
-0.0344981 0.510883 0.725184 -0.460345 
-0.994659 -0.0633567 -0.0545244 0.0605446 
-0.0998031 -0.612057 -0.780892 -0.0750623 
0.203394 0.206051 -0.952369 0.09575 
0.112603 -0.921593 0.178383 0.325832 
0.11592 -0.0656328 0.820097 0.556503 
0.266662 0.738183 0.227156 0.576522 
-0.659884 -0.742374 0.0481229 -0.10544 
0.297955 0.920469 -0.175148 -0.182438 
-0.0749154 0.813518 -0.57665 0.0071614 
-0.458288 0.107413 -0.839513 0.271389 
0.418364 -0.322381 0.225925 0.818535 
-0.0873001 0.504445 -0.148999 0.845999 
0.933334 -0.281882 -0.185762 0.122162 
0.0151138 -0.515299 -0.780196 -0.354307 
-0.442772 -0.824036 0.228703 0.269468 
0.69518 -0.539296 0.390006 -0.271626 