# vtk DataFile Version 2.0
Generated by NetDEM
ASCII 
DATASET POLYDATA
POINTS 500 double
-0.418796 -0.406933 -0.463758 
-0.446065 -0.206554 -0.450016 
-0.412576 -0.00609521 -0.464859 
-0.449242 0.113419 -0.450035 
-0.44919 0.349495 -0.450051 
-0.271057 -0.429596 -0.459137 
-0.307803 -0.210204 -0.450014 
-0.195197 -0.00921318 -0.450047 
-0.173223 0.172059 -0.463815 
-0.253024 0.36661 -0.463251 
-0.055897 -0.396565 -0.460761 
-0.145162 -0.134365 -0.45001 
-0.0557945 -0.0871322 -0.450017 
0.0359857 0.178978 -0.452313 
-0.0310152 0.319073 -0.441413 
0.193204 -0.401266 -0.462826 
0.16883 -0.210205 -0.463098 
0.173068 -0.00769397 -0.462777 
0.160415 0.209421 -0.465049 
0.301647 0.403781 -0.414101 
0.450026 -0.407741 -0.450047 
0.430827 -0.303105 -0.450045 
0.337126 -0.0143239 -0.450007 
0.380543 0.0910434 -0.450015 
0.371148 0.438933 -0.465057 
-0.428904 -0.407141 -0.392681 
-0.45 -0.247659 -0.358945 
-0.409444 -0.0181311 -0.385383 
-0.449411 0.176792 -0.372691 
-0.446162 0.45 -0.450007 
-0.332735 -0.407662 -0.402059 
-0.229889 -0.165069 -0.406197 
-0.15425 -0.098615 -0.203082 
-0.308557 0.157519 -0.463012 
-0.145838 0.40257 -0.446996 
-0.0850907 -0.388572 -0.395551 
0.317409 -0.23824 -0.105108 
-0.0317143 -0.0145913 -0.302064 
0.0263759 0.25959 -0.449921 
0.118804 0.301432 -0.425637 
0.204082 -0.413568 -0.39 
0.165595 -0.205373 -0.389812 
0.174702 0.01324 -0.385355 
0.195817 0.112382 -0.456321 
0.286927 0.374121 -0.319752 
0.395337 -0.450023 -0.377847 
0.436905 -0.35602 -0.365445 
0.27389 -0.202684 -0.450007 
0.450003 0.139471 -0.39684 
0.424981 0.339834 -0.456366 
-0.434715 -0.440317 -0.326302 
-0.320355 -0.203808 -0.351018 
-0.315841 -0.0231309 -0.358848 
-0.29098 0.266881 -0.450015 
-0.441045 0.275917 -0.382892 
-0.181878 -0.375436 -0.451049 
0.203317 -0.327897 -0.217324 
-0.236044 -0.0634627 -0.157556 
-0.177384 0.0790041 -0.450281 
-0.348121 0.334754 -0.331065 
0.0437331 -0.438201 -0.449738 
0.208001 -0.284341 -0.101799 
0.212855 0.0683402 -0.189151 
-0.0369049 0.223015 -0.38509 
0.255512 0.33119 -0.463886 
0.20287 -0.435951 -0.319012 
0.0509946 -0.0921691 -0.449988 
0.162146 0.0555692 -0.328727 
0.273479 0.0663257 -0.443879 
0.111461 0.137316 -0.398211 
0.29598 -0.450001 -0.395547 
0.378847 -0.217256 -0.45005 
0.381527 -0.107906 -0.450065 
0.450008 0.234143 -0.36465 
0.437749 0.255102 -0.460008 
-0.434444 -0.45282 -0.243916 
-0.178025 -0.171834 -0.320758 
-0.240511 -0.00474538 -0.351496 
-0.274937 0.0956438 -0.401744 
-0.359355 0.142481 -0.334487 
-0.159599 -0.448276 -0.391225 
-0.129624 -0.0555216 -0.390492 
-0.243571 0.0471287 -0.213165 
-0.0557471 0.126437 -0.442574 
-0.357217 0.373281 -0.406357 
0.0952496 -0.452537 -0.355239 
0.449977 -0.32411 -0.0341894 
-0.191462 -0.257895 -0.385705 
0.0207343 0.0475956 -0.450081 
0.0660069 0.39679 -0.4086 
0.262985 -0.444517 -0.239382 
0.159027 -0.310834 -0.380324 
0.12614 0.0631712 -0.2659 
0.260756 0.176534 -0.44461 
0.155132 0.450005 -0.450014 
0.356127 -0.314834 -0.323279 
0.449988 -0.106114 -0.37724 
0.3861 0.166844 -0.324919 
0.330828 0.308147 -0.412597 
0.431223 0.367488 -0.376025 
-0.390219 -0.438387 -0.168524 
-0.371174 -0.363777 -0.113554 
-0.296516 -0.0417411 -0.26701 
-0.373147 0.0699327 -0.401914 
-0.449999 0.383116 -0.355903 
-0.264412 -0.436986 -0.36045 
-0.0829817 -0.128744 -0.340879 
-0.244884 0.0305327 -0.114577 
-0.00687635 -0.0230968 -0.392838 
-0.423336 0.242172 -0.463951 
0.0774044 -0.338497 -0.436661 
0.35687 -0.212727 -0.0168551 
0.0174704 -0.119835 -0.345544 
0.0320533 0.0431301 -0.354138 
-0.00225644 0.438051 -0.464909 
0.303 -0.386795 -0.205645 
0.259083 -0.321605 -0.352011 
0.0431809 0.0713917 -0.252944 
0.237697 0.232815 -0.377441 
0.349147 0.450012 -0.260953 
0.343918 -0.411639 -0.30119 
0.450028 -0.207861 -0.380487 
0.45 -0.0332715 -0.450007 
0.331549 0.209132 -0.39864 
0.397164 0.450025 -0.369627 
-0.461521 -0.452408 -0.120684 
-0.320387 -0.14076 -0.273356 
-0.450785 -0.0305766 -0.316449 
-0.235803 0.181891 -0.3638 
-0.313833 0.437865 -0.345189 
-0.159699 -0.376398 -0.3333 
-0.0915955 -0.224914 -0.374166 
-0.18084 -0.158516 -0.127514 
-0.135549 0.145868 -0.393952 
-0.230579 0.326217 -0.39445 
-0.100065 -0.305362 -0.40927 
0.298114 -0.32172 -0.0535575 
0.450023 0.0512975 -0.152462 
0.0502356 0.118634 -0.325914 
-0.111139 0.313762 -0.398328 
0.178836 -0.424918 -0.217252 
0.238638 -0.142485 -0.387513 
0.111535 -0.0211164 -0.201608 
0.19992 0.30909 -0.334561 
0.205633 0.384414 -0.393936 
0.44996 -0.446947 -0.294141 
0.336583 -0.176648 -0.369087 
0.25084 -0.0656557 -0.450007 
0.450004 0.0544867 -0.343828 
0.438412 0.399013 -0.294473 
-0.443553 -0.457182 0.000731586 
-0.23216 -0.170164 -0.236531 
-0.424762 -0.129292 -0.395139 
-0.207977 0.274531 -0.326544 
-0.329867 0.233279 -0.364244 
-0.138123 -0.297056 -0.305849 
0.127487 -0.449946 -0.0788702 
-0.302062 0.361519 -0.139606 
-0.107879 0.276373 -0.315507 
-0.221464 0.444869 -0.407689 
-0.00242591 -0.338586 -0.344884 
0.136488 -0.216938 -0.120286 
-0.165739 -0.071845 -0.298715 
0.0232807 0.193549 -0.278816 
0.00713611 0.293701 -0.337048 
0.0835998 -0.422809 -0.267874 
0.134293 -0.0991365 -0.398187 
0.257586 -0.12085 -0.251439 
0.227301 0.183176 -0.317451 
0.145062 0.450002 -0.348896 
0.39196 -0.224146 -0.300728 
0.34822 -0.0764735 -0.361191 
0.32298 0.0638459 -0.372896 
0.399226 0.299162 -0.308131 
0.445869 0.37399 -0.204743 
-0.329701 -0.440987 -0.0346808 
-0.447949 -0.0920834 -0.253355 
-0.354116 0.0112099 -0.227957 
-0.44379 0.086663 -0.329773 
-0.422413 0.260331 -0.285904 
-0.270364 -0.306485 -0.446581 
-0.175525 -0.282366 -0.204825 
-0.144353 0.392756 -0.0520031 
-0.12871 0.189177 -0.323659 
-0.144155 0.442279 -0.334384 
0.0103016 -0.434268 -0.354409 
0.013762 -0.104721 -0.246785 
0.0425403 -0.220138 -0.450007 
-0.0373318 0.268576 -0.234536 
-0.00626865 0.41398 -0.368508 
0.0803428 -0.430837 -0.164697 
0.0942416 -0.0429022 -0.325974 
0.299065 -0.163142 -0.17167 
0.203168 0.139639 -0.254522 
0.249278 0.449855 -0.266376 
0.450019 -0.311037 -0.277101 
0.450024 -0.144259 -0.284836 
0.363638 0.0412067 -0.284416 
0.315897 0.243925 -0.305927 
0.38194 0.427044 -0.184741 
-0.241558 -0.442629 -0.0891068 
-0.449828 0.232135 -0.193984 
-0.295035 0.20189 -0.171219 
-0.193349 0.0776123 -0.33738 
-0.381488 0.450003 -0.272561 
-0.21863 -0.353639 -0.232189 
-0.0442055 -0.26647 -0.28349 
0.0132562 -0.245798 -0.204305 
-0.162805 0.114111 -0.243919 
-0.167589 0.354239 -0.32286 
-0.0422626 -0.391736 -0.286488 
-0.115155 -0.182595 0.432982 
-0.0255889 0.203405 -0.155273 
-0.0616734 0.125147 -0.270959 
0.113632 0.365332 -0.313299 
0.268277 -0.42883 -0.121839 
0.214005 -0.199136 -0.306516 
0.29857 -0.110374 -0.0971171 
0.151473 0.229432 -0.274961 
0.219629 0.33416 -0.240019 
0.417148 -0.38397 -0.21714 
0.446135 -0.231221 -0.216995 
0.437529 -0.0371952 -0.305882 
0.305448 0.123183 -0.284276 
0.407161 0.407337 -0.112903 
-0.234546 -0.332929 -0.137337 
-0.428161 -0.293535 -0.27128 
-0.422122 0.329984 -0.09003 
-0.348924 0.323864 -0.03968 
-0.447159 0.441464 0.0141339 
-0.138141 -0.414399 -0.241493 
-0.0552634 0.133239 -0.0441339 
-0.264207 -0.141573 0.0192215 
-0.187205 0.17746 -0.174662 
-0.161775 0.337228 -0.213231 
-0.0555346 -0.387054 -0.200673 
-0.134829 -0.159769 0.135648 
-0.119572 -0.035751 -0.133381 
0.00322396 0.112603 -0.183478 
0.0243977 0.446208 -0.274062 
0.29664 -0.326835 -0.1426 
0.256169 -0.296529 -0.282015 
0.357048 -0.0498619 -0.0448286 
0.158478 0.269815 -0.200472 
0.206644 0.410164 -0.113721 
0.365981 -0.450029 -0.162253 
0.448801 -0.196437 -0.0526803 
0.336863 0.138247 0.0277582 
0.449404 0.151065 -0.159132 
0.429053 0.393236 -0.0310616 
-0.299274 -0.30617 -0.317344 
-0.121149 -0.200872 -0.242694 
-0.322245 -0.0276102 -0.134477 
-0.220703 0.214842 -0.247348 
-0.423099 0.448824 -0.181649 
-0.244041 -0.428171 -0.190944 
0.104464 -0.286682 -0.288092 
-0.307372 0.25731 -0.101766 
-0.244074 0.302894 -0.174045 
-0.156898 0.438543 -0.218416 
0.0168579 -0.378666 -0.147237 
0.450008 -0.39372 0.0457626 
0.0816015 0.438613 -0.164135 
-0.0702803 0.406276 -0.314443 
-0.0321703 0.446668 -0.208289 
0.361323 -0.396216 -0.0732813 
0.376781 -0.101489 -0.144975 
0.197479 -0.0325189 -0.269205 
0.225106 0.198469 -0.180044 
0.0853732 0.236087 -0.365884 
0.366622 -0.297466 -0.20854 
0.35797 -0.147665 -0.245846 
0.447325 0.0817092 -0.247661 
0.448862 0.219067 -0.265834 
0.409949 0.449749 0.0197155 
-0.336809 -0.408531 0.0540241 
-0.137003 -0.339622 -0.0892397 
-0.433829 -0.11095 -0.167753 
-0.450023 0.0949345 -0.154867 
-0.351172 0.200411 -0.249391 
-0.144295 -0.440824 -0.145087 
-0.0575966 -0.308462 -0.141408 
-0.235015 0.439407 -0.283666 
-0.283059 0.31726 -0.274026 
-0.202325 0.433785 -0.12324 
0.0381734 -0.403506 -0.0607145 
-0.112258 0.450031 0.177437 
0.0264924 0.183626 -0.0722353 
-0.0696309 0.309632 -0.172692 
0.00751067 0.373752 -0.152481 
0.27369 -0.42741 -0.0103992 
0.0363886 -0.0977091 0.124381 
0.140808 -0.030673 -0.112213 
0.285028 0.176421 -0.119118 
0.079155 0.248822 -0.131251 
0.406462 -0.28474 -0.117614 
0.450005 -0.160808 -0.146103 
0.334319 -0.052434 -0.265159 
0.450002 0.27292 -0.18158 
0.301088 0.406413 -0.0354316 
-0.274977 -0.351133 -0.0426091 
-0.413832 0.00236205 -0.165763 
-0.383562 -0.300839 -0.0125925 
-0.427898 0.135835 -0.244165 
-0.450027 0.450016 -0.0853671 
-0.160442 -0.42595 -0.0288737 
-0.145943 -0.317657 0.00790324 
-0.286992 0.0852469 -0.294773 
-0.13517 0.276537 -0.0990571 
-0.249866 0.375152 -0.0497244 
-0.0228466 -0.420621 0.00198564 
-0.410587 -0.176815 -0.29822 
0.0035339 -0.0128602 -0.208511 
-0.0428113 0.294785 -0.0644747 
-0.0129239 0.43893 -0.0944915 
0.132275 -0.397885 0.0163858 
0.447258 0.009082 0.0602655 
0.0900517 -0.0370315 -0.0265555 
0.304911 0.335376 -0.182029 
0.278577 0.449989 -0.170663 
0.376058 -0.449992 0.00884617 
0.450001 -0.013705 0.163548 
0.248277 -0.0674965 -0.340559 
0.352445 0.251382 -0.17394 
0.442693 0.449166 0.107208 
-0.334023 -0.318321 0.259334 
-0.37453 -0.260333 -0.128899 
-0.426426 0.10318 -0.0722439 
-0.393783 0.350692 -0.17791 
-0.450011 0.353043 -0.26055 
-0.135446 -0.433183 0.134137 
-0.0520519 -0.152568 -0.188673 
-0.220513 0.28748 -0.0492977 
-0.101942 0.377966 -0.139541 
-0.0794261 0.427755 -0.00982274 
-0.0759401 -0.441369 0.0746143 
0.0761474 -0.168119 -0.201094 
-0.0637173 0.0672017 -0.118741 
0.0276127 0.250211 -0.00708651 
0.00435642 0.414738 -0.0173748 
0.13707 -0.328519 -0.0441922 
0.173139 -0.189865 -0.22025 
0.131584 0.157567 -0.0896297 
0.310133 0.220128 -0.0354106 
0.17416 0.449999 -0.20024 
0.449999 -0.420904 -0.116437 
0.341665 -0.269334 0.0641543 
0.413262 -0.0259898 -0.209515 
0.374545 0.167336 -0.223395 
0.434805 0.275479 0.42698 
-0.426585 -0.395151 0.0947014 
-0.449898 -0.21057 -0.20925 
-0.369461 0.216976 -0.0571285 
-0.449845 0.0658121 0.0227614 
-0.450003 0.200081 -0.0992734 
-0.22145 -0.389812 0.0490096 
-0.273129 -0.104933 -0.0744827 
-0.320409 -0.12421 -0.174666 
-0.194916 0.362534 0.0380035 
-0.123657 0.397906 0.0818758 
0.061476 -0.172292 -0.0583344 
-0.138776 -0.239665 -0.0869517 
0.225626 0.13642 -0.027709 
0.105545 0.305595 0.0570259 
-0.0049388 0.419799 0.0811337 
0.0752549 -0.23949 0.293961 
0.459266 -0.0853764 -0.00941744 
0.279911 0.0700262 0.0575098 
0.193939 0.223152 -0.0784284 
0.0651259 0.337131 0.224185 
0.397698 -0.0698704 0.0975686 
0.4479 -0.248006 0.0331673 
0.373365 0.0139065 -0.100291 
0.43 0.112441 -0.0689596 
0.328209 0.32107 -0.0855958 
-0.421344 -0.168806 -0.114166 
-0.449688 -0.258273 0.0976834 
-0.390697 -0.00244938 -0.0710166 
-0.449889 0.332847 0.206098 
-0.328012 0.449973 0.149329 
-0.234693 -0.323848 0.115921 
-0.2683 -0.295056 0.0282506 
-0.333284 0.0542917 -0.00646385 
-0.130802 0.220363 -0.0156227 
-0.148161 0.262737 0.187387 
-0.00956031 -0.399612 0.377015 
-0.130865 -0.0908797 -0.0507419 
0.121013 0.118936 0.00219623 
-0.156535 0.108996 -0.112607 
0.0286646 0.41079 0.160521 
0.0296103 -0.289037 -0.107912 
0.313481 -0.0683393 0.138021 
0.279772 0.0252654 -0.0488496 
0.179727 0.275746 0.0041807 
0.160268 0.322519 -0.126668 
0.346769 -0.333978 0.140281 
0.261386 -0.17295 -0.0327558 
0.415665 0.189298 -0.00656687 
0.4161 0.229346 -0.0981986 
0.44931 0.270367 0.209356 
-0.348613 -0.376788 0.147874 
-0.341785 -0.217675 -0.213188 
-0.447482 -0.0544143 0.00193405 
-0.449848 0.121268 0.34154 
-0.296458 0.361568 0.0379552 
-0.0518901 -0.183716 -0.0436284 
-0.167515 -0.246377 0.0806397 
-0.232962 0.0354542 -0.0154306 
-0.21636 0.236126 0.265037 
-0.210158 0.403842 0.131652 
0.203882 -0.0313978 -0.0131377 
-0.00406706 -0.0826947 -0.135618 
-0.124205 -0.0534373 0.379006 
0.0534483 0.245514 0.186689 
-0.0732339 0.368362 0.21902 
0.30711 -0.442165 0.12093 
0.342536 -0.216738 0.241956 
0.185735 0.0456597 -0.102364 
0.237166 0.279865 0.0658852 
0.22879 0.45 0.0408316 
0.443556 -0.155094 0.0701468 
0.229001 0.186503 0.323024 
0.449367 0.0920523 0.0271731 
0.425015 0.17099 0.0914032 
0.40301 0.3855 0.192395 
-0.409428 -0.408548 0.205333 
-0.443377 -0.277238 0.318479 
-0.203249 -0.034497 0.0436101 
-0.407182 0.263575 0.0157643 
-0.395068 0.368648 0.0584647 
-0.197701 -0.391356 0.183943 
-0.266677 -0.00935633 0.422371 
-0.0599742 0.00838693 -0.0379581 
-0.302409 0.171537 -0.0253256 
-0.267479 0.400023 0.221448 
0.149861 -0.421879 0.1298 
0.0753483 -0.12855 0.0170465 
0.0576898 0.0424035 0.0210607 
-0.0876123 0.164537 0.316385 
-0.0506862 0.444207 0.307451 
0.303366 -0.399102 0.2913 
0.206318 -0.108925 0.252843 
0.117122 0.157844 0.0975874 
0.268764 0.160245 0.440013 
0.161118 0.416823 -0.024935 
0.409457 -0.450032 0.117745 
0.352859 -0.187302 0.120255 
0.0599299 -0.0789442 0.442475 
0.398474 0.192806 0.191511 
0.374855 0.445893 0.276073 
-0.449502 -0.450562 0.258327 
-0.39186 0.0402482 0.318041 
-0.416865 -0.000190646 0.0841951 
-0.411625 0.183268 0.075509 
-0.44848 0.412721 0.132579 
-0.301998 -0.4193 0.22099 
-0.23165 -0.188958 0.256162 
-0.204172 0.0111471 0.133202 
-0.36816 0.10239 0.40969 
-0.349806 0.445717 0.401619 
0.0992835 -0.394041 0.383156 
-0.0340548 -0.165504 0.0752543 
-0.0674804 0.0760331 0.1688 
0.0388742 0.300744 0.125753 
0.0136839 0.328317 0.314178 
0.198528 -0.242135 -0.00463157 
0.177908 -0.19176 0.352236 
0.235327 -0.0124931 0.172831 
0.202794 0.173093 0.0597775 
0.0876998 0.420267 0.0428727 
0.403531 -0.391901 0.198818 
0.429555 -0.17793 0.185755 
0.351952 0.00392768 0.199272 
0.35831 0.18695 0.307392 
0.446434 0.349741 0.304502 
-0.394949 -0.38474 0.328047 
-0.264069 -0.135258 0.380221 
-0.418215 -0.0143779 0.441732 
-0.395754 0.20464 0.371317 
-0.391097 0.404525 0.252698 
-0.209761 -0.328068 0.2753 
-0.206207 -0.215826 0.392701 
-0.166782 -0.000447597 0.2916 
-0.314941 0.204271 0.409605 
-0.204971 0.298986 0.333957 
-0.0204101 -0.205501 0.380371 
0.00458557 -0.216624 0.153763 
-0.00360232 -0.00360232 0.220682 
0.0971264 0.0717127 0.415002 
-0.00473873 0.425211 0.372782 
0.199553 -0.398656 0.348084 
0.415772 -0.278164 0.38962 
0.269983 0.00937311 0.358613 
0.146899 0.241949 0.319829 
0.196913 0.396913 0.221197 
0.39608 -0.402663 0.297904 
0.449953 -0.181457 0.400842 
0.397144 -0.00351331 0.298169 
0.375428 0.169022 0.444148 
0.350645 0.417705 0.380385 
VERTICES 500 1000
1 0
1 1
1 2
1 3
1 4
1 5
1 6
1 7
1 8
1 9
1 10
1 11
1 12
1 13
1 14
1 15
1 16
1 17
1 18
1 19
1 20
1 21
1 22
1 23
1 24
1 25
1 26
1 27
1 28
1 29
1 30
1 31
1 32
1 33
1 34
1 35
1 36
1 37
1 38
1 39
1 40
1 41
1 42
1 43
1 44
1 45
1 46
1 47
1 48
1 49
1 50
1 51
1 52
1 53
1 54
1 55
1 56
1 57
1 58
1 59
1 60
1 61
1 62
1 63
1 64
1 65
1 66
1 67
1 68
1 69
1 70
1 71
1 72
1 73
1 74
1 75
1 76
1 77
1 78
1 79
1 80
1 81
1 82
1 83
1 84
1 85
1 86
1 87
1 88
1 89
1 90
1 91
1 92
1 93
1 94
1 95
1 96
1 97
1 98
1 99
1 100
1 101
1 102
1 103
1 104
1 105
1 106
1 107
1 108
1 109
1 110
1 111
1 112
1 113
1 114
1 115
1 116
1 117
1 118
1 119
1 120
1 121
1 122
1 123
1 124
1 125
1 126
1 127
1 128
1 129
1 130
1 131
1 132
1 133
1 134
1 135
1 136
1 137
1 138
1 139
1 140
1 141
1 142
1 143
1 144
1 145
1 146
1 147
1 148
1 149
1 150
1 151
1 152
1 153
1 154
1 155
1 156
1 157
1 158
1 159
1 160
1 161
1 162
1 163
1 164
1 165
1 166
1 167
1 168
1 169
1 170
1 171
1 172
1 173
1 174
1 175
1 176
1 177
1 178
1 179
1 180
1 181
1 182
1 183
1 184
1 185
1 186
1 187
1 188
1 189
1 190
1 191
1 192
1 193
1 194
1 195
1 196
1 197
1 198
1 199
1 200
1 201
1 202
1 203
1 204
1 205
1 206
1 207
1 208
1 209
1 210
1 211
1 212
1 213
1 214
1 215
1 216
1 217
1 218
1 219
1 220
1 221
1 222
1 223
1 224
1 225
1 226
1 227
1 228
1 229
1 230
1 231
1 232
1 233
1 234
1 235
1 236
1 237
1 238
1 239
1 240
1 241
1 242
1 243
1 244
1 245
1 246
1 247
1 248
1 249
1 250
1 251
1 252
1 253
1 254
1 255
1 256
1 257
1 258
1 259
1 260
1 261
1 262
1 263
1 264
1 265
1 266
1 267
1 268
1 269
1 270
1 271
1 272
1 273
1 274
1 275
1 276
1 277
1 278
1 279
1 280
1 281
1 282
1 283
1 284
1 285
1 286
1 287
1 288
1 289
1 290
1 291
1 292
1 293
1 294
1 295
1 296
1 297
1 298
1 299
1 300
1 301
1 302
1 303
1 304
1 305
1 306
1 307
1 308
1 309
1 310
1 311
1 312
1 313
1 314
1 315
1 316
1 317
1 318
1 319
1 320
1 321
1 322
1 323
1 324
1 325
1 326
1 327
1 328
1 329
1 330
1 331
1 332
1 333
1 334
1 335
1 336
1 337
1 338
1 339
1 340
1 341
1 342
1 343
1 344
1 345
1 346
1 347
1 348
1 349
1 350
1 351
1 352
1 353
1 354
1 355
1 356
1 357
1 358
1 359
1 360
1 361
1 362
1 363
1 364
1 365
1 366
1 367
1 368
1 369
1 370
1 371
1 372
1 373
1 374
1 375
1 376
1 377
1 378
1 379
1 380
1 381
1 382
1 383
1 384
1 385
1 386
1 387
1 388
1 389
1 390
1 391
1 392
1 393
1 394
1 395
1 396
1 397
1 398
1 399
1 400
1 401
1 402
1 403
1 404
1 405
1 406
1 407
1 408
1 409
1 410
1 411
1 412
1 413
1 414
1 415
1 416
1 417
1 418
1 419
1 420
1 421
1 422
1 423
1 424
1 425
1 426
1 427
1 428
1 429
1 430
1 431
1 432
1 433
1 434
1 435
1 436
1 437
1 438
1 439
1 440
1 441
1 442
1 443
1 444
1 445
1 446
1 447
1 448
1 449
1 450
1 451
1 452
1 453
1 454
1 455
1 456
1 457
1 458
1 459
1 460
1 461
1 462
1 463
1 464
1 465
1 466
1 467
1 468
1 469
1 470
1 471
1 472
1 473
1 474
1 475
1 476
1 477
1 478
1 479
1 480
1 481
1 482
1 483
1 484
1 485
1 486
1 487
1 488
1 489
1 490
1 491
1 492
1 493
1 494
1 495
1 496
1 497
1 498
1 499
POINT_DATA 500
SCALARS id int 1
LOOKUP_TABLE default
0
1
2
3
4
5
6
7
8
9
10
11
12
13
14
15
16
17
18
19
20
21
22
23
24
25
26
27
28
29
30
31
32
33
34
35
36
37
38
39
40
41
42
43
44
45
46
47
48
49
50
51
52
53
54
55
56
57
58
59
60
61
62
63
64
65
66
67
68
69
70
71
72
73
74
75
76
77
78
79
80
81
82
83
84
85
86
87
88
89
90
91
92
93
94
95
96
97
98
99
100
101
102
103
104
105
106
107
108
109
110
111
112
113
114
115
116
117
118
119
120
121
122
123
124
125
126
127
128
129
130
131
132
133
134
135
136
137
138
139
140
141
142
143
144
145
146
147
148
149
150
151
152
153
154
155
156
157
158
159
160
161
162
163
164
165
166
167
168
169
170
171
172
173
174
175
176
177
178
179
180
181
182
183
184
185
186
187
188
189
190
191
192
193
194
195
196
197
198
199
200
201
202
203
204
205
206
207
208
209
210
211
212
213
214
215
216
217
218
219
220
221
222
223
224
225
226
227
228
229
230
231
232
233
234
235
236
237
238
239
240
241
242
243
244
245
246
247
248
249
250
251
252
253
254
255
256
257
258
259
260
261
262
263
264
265
266
267
268
269
270
271
272
273
274
275
276
277
278
279
280
281
282
283
284
285
286
287
288
289
290
291
292
293
294
295
296
297
298
299
300
301
302
303
304
305
306
307
308
309
310
311
312
313
314
315
316
317
318
319
320
321
322
323
324
325
326
327
328
329
330
331
332
333
334
335
336
337
338
339
340
341
342
343
344
345
346
347
348
349
350
351
352
353
354
355
356
357
358
359
360
361
362
363
364
365
366
367
368
369
370
371
372
373
374
375
376
377
378
379
380
381
382
383
384
385
386
387
388
389
390
391
392
393
394
395
396
397
398
399
400
401
402
403
404
405
406
407
408
409
410
411
412
413
414
415
416
417
418
419
420
421
422
423
424
425
426
427
428
429
430
431
432
433
434
435
436
437
438
439
440
441
442
443
444
445
446
447
448
449
450
451
452
453
454
455
456
457
458
459
460
461
462
463
464
465
466
467
468
469
470
471
472
473
474
475
476
477
478
479
480
481
482
483
484
485
486
487
488
489
490
491
492
493
494
495
496
497
498
499
SCALARS type int 1
LOOKUP_TABLE default
0
0
0
0
0
0
0
0
0
0
0
0
0
0
0
0
0
0
0
0
0
0
0
0
0
0
0
0
0
0
0
0
0
0
0
0
0
0
0
0
0
0
0
0
0
0
0
0
0
0
0
0
0
0
0
0
0
0
0
0
0
0
0
0
0
0
0
0
0
0
0
0
0
0
0
0
0
0
0
0
0
0
0
0
0
0
0
0
0
0
0
0
0
0
0
0
0
0
0
0
0
0
0
0
0
0
0
0
0
0
0
0
0
0
0
0
0
0
0
0
0
0
0
0
0
0
0
0
0
0
0
0
0
0
0
0
0
0
0
0
0
0
0
0
0
0
0
0
0
0
0
0
0
0
0
0
0
0
0
0
0
0
0
0
0
0
0
0
0
0
0
0
0
0
0
0
0
0
0
0
0
0
0
0
0
0
0
0
0
0
0
0
0
0
0
0
0
0
0
0
0
0
0
0
0
0
0
0
0
0
0
0
0
0
0
0
0
0
0
0
0
0
0
0
0
0
0
0
0
0
0
0
0
0
0
0
0
0
0
0
0
0
0
0
0
0
0
0
0
0
0
0
0
0
0
0
0
0
0
0
0
0
0
0
0
0
0
0
0
0
0
0
0
0
0
0
0
0
0
0
0
0
0
0
0
0
0
0
0
0
0
0
0
0
0
0
0
0
0
0
0
0
0
0
0
0
0
0
0
0
0
0
0
0
0
0
0
0
0
0
0
0
0
0
0
0
0
0
0
0
0
0
0
0
0
0
0
0
0
0
0
0
0
0
0
0
0
0
0
0
0
0
0
0
0
0
0
0
0
0
0
0
0
0
0
0
0
0
0
0
0
0
0
0
0
0
0
0
0
0
0
0
0
0
0
0
0
0
0
0
0
0
0
0
0
0
0
0
0
0
0
0
0
0
0
0
0
0
0
0
0
0
0
0
0
0
0
0
0
0
0
0
0
0
0
0
0
0
0
0
0
0
0
0
0
0
0
0
0
0
0
0
0
0
0
0
0
0
0
0
0
0
0
0
0
0
0
0
0
0
0
0
0
0
0
0
0
0
0
0
0
0
0
0
0
0
0
0
0
0
0
0
0
0
0
0
0
0
0
0
0
0
0
0
0
0
0
0
0
0
SCALARS damp_viscous double 1
LOOKUP_TABLE default
0
0
0
0
0
0
0
0
0
0
0
0
0
0
0
0
0
0
0
0
0
0
0
0
0
0
0
0
0
0
0
0
0
0
0
0
0
0
0
0
0
0
0
0
0
0
0
0
0
0
0
0
0
0
0
0
0
0
0
0
0
0
0
0
0
0
0
0
0
0
0
0
0
0
0
0
0
0
0
0
0
0
0
0
0
0
0
0
0
0
0
0
0
0
0
0
0
0
0
0
0
0
0
0
0
0
0
0
0
0
0
0
0
0
0
0
0
0
0
0
0
0
0
0
0
0
0
0
0
0
0
0
0
0
0
0
0
0
0
0
0
0
0
0
0
0
0
0
0
0
0
0
0
0
0
0
0
0
0
0
0
0
0
0
0
0
0
0
0
0
0
0
0
0
0
0
0
0
0
0
0
0
0
0
0
0
0
0
0
0
0
0
0
0
0
0
0
0
0
0
0
0
0
0
0
0
0
0
0
0
0
0
0
0
0
0
0
0
0
0
0
0
0
0
0
0
0
0
0
0
0
0
0
0
0
0
0
0
0
0
0
0
0
0
0
0
0
0
0
0
0
0
0
0
0
0
0
0
0
0
0
0
0
0
0
0
0
0
0
0
0
0
0
0
0
0
0
0
0
0
0
0
0
0
0
0
0
0
0
0
0
0
0
0
0
0
0
0
0
0
0
0
0
0
0
0
0
0
0
0
0
0
0
0
0
0
0
0
0
0
0
0
0
0
0
0
0
0
0
0
0
0
0
0
0
0
0
0
0
0
0
0
0
0
0
0
0
0
0
0
0
0
0
0
0
0
0
0
0
0
0
0
0
0
0
0
0
0
0
0
0
0
0
0
0
0
0
0
0
0
0
0
0
0
0
0
0
0
0
0
0
0
0
0
0
0
0
0
0
0
0
0
0
0
0
0
0
0
0
0
0
0
0
0
0
0
0
0
0
0
0
0
0
0
0
0
0
0
0
0
0
0
0
0
0
0
0
0
0
0
0
0
0
0
0
0
0
0
0
0
0
0
0
0
0
0
0
0
0
0
0
0
0
0
0
0
0
0
0
0
0
0
0
0
0
0
0
0
0
0
0
0
0
0
0
0
0
0
0
0
0
0
0
0
0
0
0
0
0
0
SCALARS damp_numerical double 1
LOOKUP_TABLE default
0.5
0.5
0.5
0.5
0.5
0.5
0.5
0.5
0.5
0.5
0.5
0.5
0.5
0.5
0.5
0.5
0.5
0.5
0.5
0.5
0.5
0.5
0.5
0.5
0.5
0.5
0.5
0.5
0.5
0.5
0.5
0.5
0.5
0.5
0.5
0.5
0.5
0.5
0.5
0.5
0.5
0.5
0.5
0.5
0.5
0.5
0.5
0.5
0.5
0.5
0.5
0.5
0.5
0.5
0.5
0.5
0.5
0.5
0.5
0.5
0.5
0.5
0.5
0.5
0.5
0.5
0.5
0.5
0.5
0.5
0.5
0.5
0.5
0.5
0.5
0.5
0.5
0.5
0.5
0.5
0.5
0.5
0.5
0.5
0.5
0.5
0.5
0.5
0.5
0.5
0.5
0.5
0.5
0.5
0.5
0.5
0.5
0.5
0.5
0.5
0.5
0.5
0.5
0.5
0.5
0.5
0.5
0.5
0.5
0.5
0.5
0.5
0.5
0.5
0.5
0.5
0.5
0.5
0.5
0.5
0.5
0.5
0.5
0.5
0.5
0.5
0.5
0.5
0.5
0.5
0.5
0.5
0.5
0.5
0.5
0.5
0.5
0.5
0.5
0.5
0.5
0.5
0.5
0.5
0.5
0.5
0.5
0.5
0.5
0.5
0.5
0.5
0.5
0.5
0.5
0.5
0.5
0.5
0.5
0.5
0.5
0.5
0.5
0.5
0.5
0.5
0.5
0.5
0.5
0.5
0.5
0.5
0.5
0.5
0.5
0.5
0.5
0.5
0.5
0.5
0.5
0.5
0.5
0.5
0.5
0.5
0.5
0.5
0.5
0.5
0.5
0.5
0.5
0.5
0.5
0.5
0.5
0.5
0.5
0.5
0.5
0.5
0.5
0.5
0.5
0.5
0.5
0.5
0.5
0.5
0.5
0.5
0.5
0.5
0.5
0.5
0.5
0.5
0.5
0.5
0.5
0.5
0.5
0.5
0.5
0.5
0.5
0.5
0.5
0.5
0.5
0.5
0.5
0.5
0.5
0.5
0.5
0.5
0.5
0.5
0.5
0.5
0.5
0.5
0.5
0.5
0.5
0.5
0.5
0.5
0.5
0.5
0.5
0.5
0.5
0.5
0.5
0.5
0.5
0.5
0.5
0.5
0.5
0.5
0.5
0.5
0.5
0.5
0.5
0.5
0.5
0.5
0.5
0.5
0.5
0.5
0.5
0.5
0.5
0.5
0.5
0.5
0.5
0.5
0.5
0.5
0.5
0.5
0.5
0.5
0.5
0.5
0.5
0.5
0.5
0.5
0.5
0.5
0.5
0.5
0.5
0.5
0.5
0.5
0.5
0.5
0.5
0.5
0.5
0.5
0.5
0.5
0.5
0.5
0.5
0.5
0.5
0.5
0.5
0.5
0.5
0.5
0.5
0.5
0.5
0.5
0.5
0.5
0.5
0.5
0.5
0.5
0.5
0.5
0.5
0.5
0.5
0.5
0.5
0.5
0.5
0.5
0.5
0.5
0.5
0.5
0.5
0.5
0.5
0.5
0.5
0.5
0.5
0.5
0.5
0.5
0.5
0.5
0.5
0.5
0.5
0.5
0.5
0.5
0.5
0.5
0.5
0.5
0.5
0.5
0.5
0.5
0.5
0.5
0.5
0.5
0.5
0.5
0.5
0.5
0.5
0.5
0.5
0.5
0.5
0.5
0.5
0.5
0.5
0.5
0.5
0.5
0.5
0.5
0.5
0.5
0.5
0.5
0.5
0.5
0.5
0.5
0.5
0.5
0.5
0.5
0.5
0.5
0.5
0.5
0.5
0.5
0.5
0.5
0.5
0.5
0.5
0.5
0.5
0.5
0.5
0.5
0.5
0.5
0.5
0.5
0.5
0.5
0.5
0.5
0.5
0.5
0.5
0.5
0.5
0.5
0.5
0.5
0.5
0.5
0.5
0.5
0.5
0.5
0.5
0.5
0.5
0.5
0.5
0.5
0.5
0.5
0.5
0.5
0.5
0.5
0.5
0.5
0.5
0.5
0.5
0.5
0.5
0.5
0.5
0.5
0.5
0.5
0.5
0.5
0.5
0.5
0.5
0.5
0.5
0.5
0.5
0.5
0.5
0.5
0.5
0.5
0.5
0.5
0.5
0.5
0.5
0.5
0.5
0.5
0.5
0.5
0.5
0.5
0.5
0.5
0.5
0.5
0.5
0.5
SCALARS quat double 4
LOOKUP_TABLE default
0.966073 0.0747354 -0.047606 0.242594 
0.740192 0.24616 0.620846 0.0779188 
0.987316 0.0860957 -0.106344 -0.0805302 
-0.390897 -0.464594 -0.580453 -0.54261 
0.0682374 0.641317 -0.366763 0.670478 
0.797591 -0.270727 -0.203703 0.49906 
0.247265 -0.391763 -0.160026 0.87165 
0.891653 0.0250892 0.313016 0.326107 
-0.117681 0.44872 0.885881 0.00401692 
0.137309 0.08944 -0.0186872 0.986305 
0.905169 -0.160761 -0.109164 0.378033 
0.198526 -0.887474 -0.327828 -0.255942 
0.090485 0.378051 -0.00562274 0.921335 
0.589292 0.726043 0.344719 -0.0822523 
0.349479 0.814834 -0.141704 0.440261 
0.996056 0.0808049 -0.0360061 -0.00684695 
0.643304 0.0463806 -0.0417871 0.763061 
0.982015 0.084927 -0.0199001 0.167445 
0.968917 0.114464 -0.0880539 0.200859 
-0.823745 0.147704 0.543783 0.0626687 
0.841478 0.101913 0.50756 -0.154635 
-0.330505 0.82706 -0.308909 0.333637 
0.804889 -0.213687 -0.502411 -0.232539 
0.570226 0.72858 -0.355854 -0.131836 
0.984469 0.104555 -0.0985216 0.100911 
0.947623 0.162271 -0.1649 0.220198 
-0.191724 0.90129 0.0627334 0.383385 
0.981166 0.168436 -0.0496563 -0.0804765 
0.503346 -0.453754 -0.460965 0.572941 
-0.208121 0.390699 -0.33081 0.833429 
0.732648 0.360837 0.503758 0.281515 
0.485273 -0.525589 -0.182803 -0.674426 
0.0581577 -0.0475092 -0.971213 0.226067 
0.174962 0.0869422 -0.0301037 0.980267 
0.558586 0.701922 0.207555 -0.390139 
0.335099 -0.133188 0.104425 0.926858 
-0.329995 0.432831 -0.462698 0.699765 
0.217228 0.36929 0.262927 0.864469 
0.719588 -0.645253 -0.253579 0.0392432 
0.562926 0.659552 -0.0874963 -0.490356 
0.947282 0.164253 -0.152321 0.229076 
0.694111 0.184037 -0.114222 0.686508 
0.981927 -0.183948 -0.0285734 0.0341503 
0.0215367 0.818921 0.556872 -0.137109 
0.681163 -0.568178 -0.388884 -0.248917 
0.407553 0.242372 -0.743985 0.470788 
0.552047 -0.190727 0.161373 -0.795503 
-0.944781 0.222032 -0.137083 0.19824 
0.428928 0.766769 -0.375993 0.294475 
-0.835232 0.511892 0.111799 -0.166899 
0.92464 0.307264 -0.211283 -0.077394 
0.316497 -0.102154 0.932481 -0.140975 
0.824872 -0.037426 0.564077 -0.00171889 
-0.687663 0.415526 -0.592871 -0.0544305 
-0.476917 0.648184 0.376294 -0.459141 
-0.615112 0.46546 0.495941 -0.398782 
0.103634 0.180514 0.964224 -0.164156 
0.190158 -0.0719589 -0.795043 -0.571462 
-0.179582 -0.00628662 0.782488 -0.596174 
0.306901 -0.928837 -0.206839 0.0170539 
-0.466375 0.250994 0.647739 -0.547659 
-0.802526 0.0107334 0.196346 0.56328 
-0.25689 -0.679736 0.107704 0.678503 
0.00512473 0.247194 0.964606 0.0916791 
-0.10316 0.0364214 0.992662 -0.0515097 
0.921587 0.251721 -0.258242 -0.143617 
-0.163491 -0.948648 -0.158215 0.219784 
0.969748 -0.140521 -0.129181 0.152166 
0.897583 -0.0185402 0.405583 -0.171765 
-0.906775 -0.128915 -0.147006 -0.373536 
0.456055 -0.423844 -0.629289 0.465152 
-0.55249 -0.746362 -0.360423 -0.088278 
0.361363 0.340288 0.0272919 -0.867684 
-0.548104 0.775724 -0.295964 -0.101193 
0.950628 -0.235369 0.01424 -0.201755 
0.961058 0.126942 -0.126259 -0.210504 
0.502818 -0.101829 -0.590362 0.62312 
0.884626 -0.214044 0.403021 -0.0958971 
-0.521028 -0.171081 -0.0913157 0.831218 
-0.588906 0.133654 -0.158113 -0.781234 
0.885086 0.27962 -0.0301786 -0.370843 
-0.445243 0.850708 0.0192168 0.27872 
0.961314 -0.0565499 0.26195 -0.0637136 
-0.244492 0.81177 -0.27073 0.456025 
0.994883 -0.0965398 0.00313253 -0.0296322 
0.799365 -0.422851 -0.395184 0.161377 
-0.282442 -0.378403 0.0523716 -0.87994 
0.614416 0.611761 0.481442 -0.128278 
0.318928 0.919177 0.0776064 -0.217659 
-0.176003 0.541344 -0.624883 0.534314 
0.878242 -0.235638 0.292371 -0.296117 
-0.798556 0.468304 -0.374873 0.0497081 
0.904177 -0.0445636 -0.358313 0.22823 
0.876839 -0.279831 0.386007 0.062021 
0.798109 -0.0665733 0.446601 -0.39892 
0.472251 -0.611568 -0.166712 -0.612512 
0.323301 -0.787688 0.47642 0.219198 
0.314991 -0.0550229 -0.733212 0.600128 
-0.633116 0.578466 0.030334 -0.51344 
0.988717 -0.0488324 -0.0483183 -0.133115 
0.855764 -0.0703374 -0.116843 -0.499068 
0.287738 0.570719 0.69592 0.327387 
-0.00613115 0.425739 -0.904554 0.0221655 
-0.676208 -0.588601 -0.419246 -0.143262 
-0.654287 -0.382863 -0.503106 -0.41498 
0.922887 -0.184537 0.298562 0.158389 
-0.507402 0.614293 0.106082 -0.594924 
0.0479478 0.669439 0.729567 -0.131473 
0.820567 0.390296 -0.0906747 -0.407574 
0.0107946 0.196222 -0.978049 0.0692899 
0.275487 -0.639326 -0.255158 0.671017 
-0.511713 -0.31109 0.548736 0.583319 
-0.0720506 -0.488149 0.321807 -0.808059 
0.812084 -0.262114 0.49589 0.160961 
-0.223954 0.0787525 0.109537 0.965217 
0.946386 -0.173426 0.259901 0.0820216 
0.0109855 -0.882622 0.464358 -0.0723193 
0.475444 -0.0643341 -0.386409 0.78772 
0.887192 0.0848377 0.0953649 0.443394 
0.278147 0.134763 -0.795444 0.521288 
0.0698189 0.0978955 0.482355 -0.867684 
-0.127852 -0.265901 -0.684366 0.666778 
0.35935 -0.440882 -0.413607 -0.710929 
-0.938091 -0.23372 -0.167079 0.193506 
0.788278 -0.545593 0.0852459 0.271439 
0.784865 0.28542 -0.528671 -0.151753 
0.46259 0.616152 0.521816 -0.366162 
0.537993 0.279029 0.161032 -0.778958 
-0.701581 0.175954 0.668685 -0.172292 
0.470597 -0.363347 0.726316 0.344938 
-0.00694466 0.488136 0.727088 -0.482719 
-0.903439 0.113304 -0.14277 0.388043 
-0.0105969 -0.46366 -0.878183 0.117059 
0.223017 0.199721 -0.946071 0.12379 
0.181862 -0.880729 0.269283 0.344572 
0.315149 -0.23705 0.671849 0.626982 
0.280165 0.732746 0.23339 0.57456 
-0.720456 -0.692165 0.0261208 -0.0341892 
0.332777 0.895078 -0.188683 -0.229115 
-0.00608675 0.799033 -0.601249 0.00280093 
-0.63927 0.0927886 -0.762807 0.0291377 
0.460101 -0.229752 0.365935 0.775637 
-0.100398 0.52897 -0.046612 0.84139 
0.95242 -0.213425 -0.17077 0.134846 
0.0379392 -0.536511 -0.764199 -0.355971 
-0.508606 -0.819841 0.227362 0.132239 
0.740053 -0.511362 0.351771 -0.259014 
0.283998 -0.570232 0.154383 -0.755213 
-0.119317 -0.567189 -0.10069 -0.808654 
-0.334694 0.934898 0.0925406 0.073361 