# vtk DataFile Version 2.0
Generated by NetDEM
ASCII 
DATASET POLYDATA
POINTS 350 double
-0.418367 -0.406122 -0.46336 
-0.41534 -0.203382 -0.409666 
-0.409113 -0.00544214 -0.463319 
-0.449498 0.134398 -0.450007 
-0.394415 0.403842 -0.449896 
-0.267011 -0.431907 -0.459513 
-0.227812 -0.205053 -0.400088 
-0.200975 -0.00494498 -0.415484 
-0.166934 0.184317 -0.462537 
-0.250622 0.366745 -0.464609 
-0.043715 -0.404827 -0.460274 
-0.0500417 -0.182605 -0.41712 
-0.0172308 -0.027091 -0.418803 
0.0326691 0.182553 -0.453408 
-0.0195382 0.351055 -0.437898 
0.193449 -0.398657 -0.462672 
0.171276 -0.206539 -0.461598 
0.17414 -0.00919408 -0.461401 
0.159926 0.210673 -0.464811 
0.310492 0.422133 -0.40097 
0.414553 -0.400999 -0.450018 
0.407427 -0.296918 -0.450007 
0.34327 -0.010071 -0.450008 
0.38272 0.0923916 -0.450012 
0.370126 0.438207 -0.465052 
-0.409812 -0.402327 -0.382939 
-0.42002 -0.201707 -0.0954568 
-0.394799 -0.00365865 -0.38508 
-0.449992 0.179959 -0.360529 
-0.44994 0.448213 -0.346017 
-0.315049 -0.410482 -0.395746 
-0.209083 -0.202867 -0.106469 
-0.16545 -0.0567534 0.0253432 
-0.301663 0.160801 -0.465044 
-0.156218 0.408607 -0.440778 
-0.0685856 -0.414854 -0.390541 
0.0334258 -0.213194 0.106292 
0.0105359 0.0204073 -0.0559065 
0.0118453 0.251904 -0.443731 
0.0943267 0.31291 -0.412784 
0.204779 -0.404661 -0.389857 
0.176039 -0.191795 -0.387943 
0.186926 -0.00514907 -0.381673 
0.197358 0.112436 -0.455609 
0.300443 0.410277 -0.298966 
0.401501 -0.450006 -0.363842 
0.407971 -0.349842 -0.364351 
0.293439 -0.175776 -0.450007 
0.450001 0.137923 -0.391705 
0.423298 0.341433 -0.455169 
-0.412462 -0.413066 -0.285109 
-0.33042 -0.203024 -0.043477 
-0.349802 0.0128382 -0.316713 
-0.214891 0.269059 -0.425337 
-0.446733 0.274002 -0.325986 
-0.182337 -0.37108 -0.452402 
-0.0599814 -0.196305 -0.000728603 
-0.178126 -0.0566052 0.126146 
-0.153813 0.168082 -0.379738 
-0.312146 0.359297 -0.32391 
0.0352272 -0.432058 -0.377473 
0.176271 -0.301922 0.311535 
0.0390967 0.0607765 0.0413666 
-0.0327264 0.230262 -0.362659 
0.24821 0.346854 -0.458534 
0.19366 -0.414521 -0.3157 
0.0999091 -0.123885 -0.388075 
0.185482 0.0205073 -0.309567 
0.274573 0.0662574 -0.443501 
0.105157 0.206741 -0.368552 
0.330663 -0.444978 -0.293455 
0.387909 -0.201081 -0.429024 
0.377417 -0.0872335 -0.396344 
0.450012 0.23451 -0.362888 
0.439439 0.258377 -0.458616 
-0.423083 -0.42344 -0.194449 
-0.335455 -0.206652 0.0566174 
-0.319923 0.0334149 -0.248548 
-0.234437 0.21302 -0.321909 
-0.356725 0.195144 -0.197999 
-0.155952 -0.445223 -0.386536 
-0.230607 -0.189336 0.00227317 
-0.256084 0.0423977 0.150312 
-0.0786288 0.155072 -0.414848 
-0.360779 0.431749 -0.350294 
0.0958079 -0.443299 -0.306204 
0.152334 -0.233738 0.188584 
-0.0758735 -0.122812 -0.0681331 
0.026736 0.098461 -0.445078 
0.0669351 0.422705 -0.400562 
0.233347 -0.418188 -0.226998 
0.174891 -0.255028 -0.340444 
0.180334 0.0271127 -0.238054 
0.259289 0.177935 -0.441145 
0.151299 0.450003 -0.45001 
0.364231 -0.321304 -0.279041 
0.449917 -0.105518 -0.329939 
0.388646 0.166975 -0.318218 
0.319623 0.307865 -0.405091 
0.424646 0.365084 -0.368863 
-0.41481 -0.429907 -0.101345 
-0.441735 -0.227279 0.0800386 
-0.378441 0.00512822 -0.168073 
-0.391678 0.110444 -0.287597 
-0.450002 0.379091 -0.273533 
-0.248581 -0.415918 -0.341101 
-0.248346 -0.21049 0.11157 
-0.191274 -0.00604796 0.249633 
-0.0944878 0.10723 -0.30666 
-0.442622 0.268564 -0.416671 
0.0562874 -0.354359 -0.311465 
0.0351377 -0.159604 0.270378 
-0.0168994 -0.042598 0.0170052 
-0.0174274 0.181868 -0.296318 
-0.079408 0.444014 -0.375271 
0.248872 -0.390434 -0.159226 
0.266837 -0.294859 -0.281812 
0.161004 0.0214044 -0.168234 
0.227404 0.228486 -0.372546 
0.36228 0.449705 -0.219435 
0.350336 -0.406811 -0.203148 
0.449999 -0.203475 -0.350055 
0.430836 0.0229354 -0.396532 
0.323685 0.209372 -0.386939 
0.400467 0.450789 -0.341648 
-0.460124 -0.452168 -0.020221 
-0.351591 -0.217047 0.156273 
-0.460467 -0.0187313 -0.163948 
-0.238678 0.205202 -0.221428 
-0.34186 0.44575 -0.242443 
-0.159363 -0.421661 -0.296767 
-0.114275 -0.267043 0.0667897 
-0.150895 -0.113295 0.283972 
-0.111118 0.168363 -0.225547 
-0.223762 0.312029 -0.333082 
-0.0716897 -0.344458 -0.323768 
0.280444 -0.322811 0.297598 
0.122263 0.0316882 0.094332 
0.0295898 0.185463 -0.232238 
-0.0901008 0.326152 -0.373326 
0.202838 -0.403114 -0.0734324 
0.235721 -0.189316 -0.254877 
0.16535 0.00460374 -0.0776532 
0.194609 0.304844 -0.318789 
0.197098 0.395315 -0.377887 
0.408266 -0.449918 -0.133964 
0.373884 -0.163684 -0.298754 
0.311004 -0.0512993 -0.33071 
0.449999 0.0687235 -0.308987 
0.436394 0.401176 -0.273722 
-0.426041 -0.449129 0.118977 
-0.302586 -0.2002 0.280886 
-0.45081 -0.0489194 -0.0662605 
-0.209873 0.293115 -0.182537 
-0.297691 0.326771 -0.221028 
-0.120093 -0.381775 -0.220163 
0.0113383 -0.258853 0.199747 
-0.287898 0.161142 0.161962 
-0.112323 0.261501 -0.193381 
-0.222311 0.442741 -0.3087 
-0.0258029 -0.36893 -0.234844 
0.111851 -0.213627 0.351436 
-0.0282833 -0.046783 0.116231 
0.0518263 0.178788 -0.154819 
-0.0362431 0.325751 -0.284334 
0.0952375 -0.450312 -0.0460099 
0.170182 -0.14765 -0.190575 
0.202378 -0.0232602 -0.00794418 
0.219759 0.178934 -0.305771 
0.129361 0.445421 -0.289259 
0.390636 -0.237524 -0.231241 
0.37613 -0.0943725 -0.226674 
0.332112 0.0585316 -0.340385 
0.397729 0.307353 -0.266194 
0.446127 0.380024 -0.174316 
-0.294638 -0.426341 0.135982 
-0.449807 -0.180791 0.177449 
-0.40736 -0.0062507 -0.00584252 
-0.449969 0.159177 -0.189302 
-0.407698 0.285773 -0.231406 
-0.257372 -0.388626 -0.263515 
-0.167688 -0.283394 0.154801 
-0.215176 0.147501 0.231841 
-0.125836 0.195334 -0.128791 
-0.154809 0.441595 -0.221089 
0.0455827 -0.440378 -0.2341 
-0.069067 -0.0922233 0.195382 
-0.0931751 -0.183256 0.149443 
-0.0344971 0.241013 -0.110786 
-0.0629885 0.444107 -0.27344 
0.0907664 -0.440681 0.059707 
0.161575 -0.144515 -0.097227 
0.226373 -0.0602325 0.0569689 
0.212004 0.139236 -0.234266 
0.245178 0.449935 -0.224183 
0.408644 -0.313207 -0.167205 
0.417404 -0.182345 -0.152251 
0.371121 0.0511339 -0.197499 
0.327712 0.233727 -0.27507 
0.387155 0.438056 -0.134708 
-0.230077 -0.366926 0.133826 
-0.440053 0.0482285 0.0907138 
-0.349874 0.0702375 0.070983 
-0.257097 0.108287 -0.204327 
-0.436588 0.448214 -0.201769 
-0.223968 -0.407058 -0.174398 
-0.0586151 -0.33681 0.124791 
-0.0649123 -0.206993 0.247659 
-0.164147 0.147092 -0.0427162 
-0.188731 0.378028 -0.141672 
0.0072623 -0.409512 -0.160326 
0.0726109 -0.343698 0.441225 
0.0159968 0.123934 0.15537 
-0.0285202 0.186598 -0.0422507 
0.0194883 0.356603 -0.196233 
0.15993 -0.401065 0.13151 
0.19869 -0.187506 -0.0235286 
0.234898 -0.0655748 0.139358 
0.167899 0.215587 -0.233208 
0.180644 0.374714 -0.239335 
0.402475 -0.39254 -0.0489146 
0.405138 -0.272141 -0.0759897 
0.412285 -0.0316583 -0.156938 
0.335481 0.135829 -0.239248 
0.397952 0.403262 -0.0661779 
-0.227929 -0.329617 0.214255 
-0.450046 -0.256992 0.408269 
-0.382876 0.206828 0.19135 
-0.332981 0.263307 0.395194 
-0.419852 0.410704 0.439824 
-0.179453 -0.402939 -0.0974178 
-0.178269 -0.245201 0.443174 
-0.154898 -0.0298491 0.447713 
-0.198139 0.181487 0.0374473 
-0.220787 0.358528 -0.0337164 
-0.00906685 -0.396036 -0.0760028 
-0.101429 -0.141748 0.449046 
-0.00315188 0.0512862 0.426159 
0.0243284 0.154305 0.0335721 
-0.00747543 0.39062 -0.104852 
0.259846 -0.384529 0.182624 
0.213211 -0.321048 -0.0234255 
0.218799 -0.0218828 0.204221 
0.186995 0.235569 -0.134817 
0.199827 0.401146 0.434782 
0.391809 -0.449919 0.0594756 
0.449956 -0.204492 0.200119 
0.323917 -0.0171879 0.449995 
0.37783 0.304579 0.419109 
0.401979 0.391574 0.0195742 
-0.362591 -0.359312 0.266398 
-0.189416 -0.205106 0.230007 
-0.340287 -0.0280928 0.25133 
-0.277946 0.207384 -0.129628 
-0.317631 0.424402 -0.110004 
-0.215443 -0.402968 -0.0105728 
-0.0339201 -0.238279 0.339476 
-0.20068 0.0142205 0.348068 
-0.21084 0.240237 0.115673 
-0.205952 0.404678 0.0280226 
-0.00161966 -0.39807 0.0147469 
0.449982 -0.325938 0.292641 
0.113324 0.349337 0.214162 
-0.0336386 0.22825 0.0653141 
-0.00553228 0.409991 -0.00330877 
0.306754 -0.416554 0.249909 
0.333725 -0.161606 0.125318 
0.174469 0.0127485 0.262466 
0.211184 0.192009 -0.0518557 
0.0585334 0.310558 -0.297 
0.394497 -0.317023 0.0178672 
0.390993 -0.173724 -0.0559904 
0.396159 0.0499793 -0.0942192 
0.426164 0.211056 -0.220473 
0.392285 0.415404 0.09826 
-0.451664 -0.450468 0.303024 
-0.236715 -0.22349 0.360533 
-0.443801 -0.106967 0.382842 
-0.449915 0.0726922 0.209442 
-0.343524 0.283545 -0.142918 
-0.135904 -0.41366 0.132593 
-0.0968529 -0.337253 0.226934 
-0.433536 0.449473 0.284467 
-0.260344 0.338698 0.108044 
-0.196464 0.396706 0.117735 
-0.00384716 -0.412571 0.109778 
-0.0540967 -0.0589031 0.400299 
0.0372444 0.118817 0.253084 
-0.0193521 0.208133 0.163236 
0.00597004 0.398441 0.0885611 
0.222712 -0.403316 0.327 
0.165352 -0.292385 0.445294 
0.109009 0.0138347 0.306048 
0.196481 0.174965 0.0498915 
0.105078 0.178745 0.0823873 
0.395929 -0.268554 0.105533 
0.397882 -0.189955 0.0424043 
0.376997 -0.0759771 -0.0722682 
0.449835 0.312311 0.0572646 
0.389657 0.40274 0.189934 
-0.431985 -0.429189 0.425741 
-0.440892 -0.128755 0.266501 
-0.374832 -0.000113494 0.447784 
-0.435507 0.162939 -0.0305043 
-0.449389 0.43526 0.060795 
-0.186308 -0.414987 0.260854 
-0.175851 -0.343961 0.415393 
-0.298559 0.16039 0.294586 
-0.14295 0.191748 0.418999 
-0.2062 0.394276 0.233574 
-0.00463858 -0.405855 0.204031 
-0.245701 -0.0874605 0.351927 
-0.0497015 -0.0670106 0.298139 
-0.000188085 0.206191 0.283759 
-0.00750247 0.396232 0.173067 
0.0924017 -0.437123 0.441925 
0.253656 -0.109237 0.433739 
0.169834 -0.0320355 0.457379 
0.264195 0.272335 0.0978619 
0.287998 0.449985 0.209406 
0.396946 -0.39637 0.431327 
0.400266 -0.172474 0.446504 
0.28041 0.085397 -0.118388 
0.36643 0.300482 0.234001 
0.40621 0.408505 0.297725 
-0.33099 -0.392515 0.440258 
-0.376375 -0.216624 0.35397 
-0.416339 0.022179 0.326388 
-0.401947 0.197947 0.323778 
-0.330631 0.339974 0.184949 
-0.14244 -0.433752 0.348935 
-0.126786 -0.194992 0.363319 
-0.293802 0.157873 0.396655 
-0.178809 0.27236 0.26247 
-0.203803 0.395701 0.340701 
-0.00292062 -0.402921 0.313146 
0.0206763 -0.136089 0.376153 
0.0102098 0.0174401 0.314783 
-0.00351611 0.200157 0.388475 
-0.00266816 0.397332 0.313398 
0.199292 -0.421144 0.415252 
0.264509 -0.241848 0.364296 
0.18087 0.00164474 0.383356 
0.197198 0.197198 0.313264 
0.200898 0.400273 0.219828 
0.420186 -0.449904 0.199455 
0.449939 -0.267845 0.376544 
0.396488 -0.00351175 0.312554 
0.396508 0.196508 0.312574 
0.395334 0.404086 0.425406 
VERTICES 350 700
1 0
1 1
1 2
1 3
1 4
1 5
1 6
1 7
1 8
1 9
1 10
1 11
1 12
1 13
1 14
1 15
1 16
1 17
1 18
1 19
1 20
1 21
1 22
1 23
1 24
1 25
1 26
1 27
1 28
1 29
1 30
1 31
1 32
1 33
1 34
1 35
1 36
1 37
1 38
1 39
1 40
1 41
1 42
1 43
1 44
1 45
1 46
1 47
1 48
1 49
1 50
1 51
1 52
1 53
1 54
1 55
1 56
1 57
1 58
1 59
1 60
1 61
1 62
1 63
1 64
1 65
1 66
1 67
1 68
1 69
1 70
1 71
1 72
1 73
1 74
1 75
1 76
1 77
1 78
1 79
1 80
1 81
1 82
1 83
1 84
1 85
1 86
1 87
1 88
1 89
1 90
1 91
1 92
1 93
1 94
1 95
1 96
1 97
1 98
1 99
1 100
1 101
1 102
1 103
1 104
1 105
1 106
1 107
1 108
1 109
1 110
1 111
1 112
1 113
1 114
1 115
1 116
1 117
1 118
1 119
1 120
1 121
1 122
1 123
1 124
1 125
1 126
1 127
1 128
1 129
1 130
1 131
1 132
1 133
1 134
1 135
1 136
1 137
1 138
1 139
1 140
1 141
1 142
1 143
1 144
1 145
1 146
1 147
1 148
1 149
1 150
1 151
1 152
1 153
1 154
1 155
1 156
1 157
1 158
1 159
1 160
1 161
1 162
1 163
1 164
1 165
1 166
1 167
1 168
1 169
1 170
1 171
1 172
1 173
1 174
1 175
1 176
1 177
1 178
1 179
1 180
1 181
1 182
1 183
1 184
1 185
1 186
1 187
1 188
1 189
1 190
1 191
1 192
1 193
1 194
1 195
1 196
1 197
1 198
1 199
1 200
1 201
1 202
1 203
1 204
1 205
1 206
1 207
1 208
1 209
1 210
1 211
1 212
1 213
1 214
1 215
1 216
1 217
1 218
1 219
1 220
1 221
1 222
1 223
1 224
1 225
1 226
1 227
1 228
1 229
1 230
1 231
1 232
1 233
1 234
1 235
1 236
1 237
1 238
1 239
1 240
1 241
1 242
1 243
1 244
1 245
1 246
1 247
1 248
1 249
1 250
1 251
1 252
1 253
1 254
1 255
1 256
1 257
1 258
1 259
1 260
1 261
1 262
1 263
1 264
1 265
1 266
1 267
1 268
1 269
1 270
1 271
1 272
1 273
1 274
1 275
1 276
1 277
1 278
1 279
1 280
1 281
1 282
1 283
1 284
1 285
1 286
1 287
1 288
1 289
1 290
1 291
1 292
1 293
1 294
1 295
1 296
1 297
1 298
1 299
1 300
1 301
1 302
1 303
1 304
1 305
1 306
1 307
1 308
1 309
1 310
1 311
1 312
1 313
1 314
1 315
1 316
1 317
1 318
1 319
1 320
1 321
1 322
1 323
1 324
1 325
1 326
1 327
1 328
1 329
1 330
1 331
1 332
1 333
1 334
1 335
1 336
1 337
1 338
1 339
1 340
1 341
1 342
1 343
1 344
1 345
1 346
1 347
1 348
1 349
POINT_DATA 350
SCALARS id int 1
LOOKUP_TABLE default
0
1
2
3
4
5
6
7
8
9
10
11
12
13
14
15
16
17
18
19
20
21
22
23
24
25
26
27
28
29
30
31
32
33
34
35
36
37
38
39
40
41
42
43
44
45
46
47
48
49
50
51
52
53
54
55
56
57
58
59
60
61
62
63
64
65
66
67
68
69
70
71
72
73
74
75
76
77
78
79
80
81
82
83
84
85
86
87
88
89
90
91
92
93
94
95
96
97
98
99
100
101
102
103
104
105
106
107
108
109
110
111
112
113
114
115
116
117
118
119
120
121
122
123
124
125
126
127
128
129
130
131
132
133
134
135
136
137
138
139
140
141
142
143
144
145
146
147
148
149
150
151
152
153
154
155
156
157
158
159
160
161
162
163
164
165
166
167
168
169
170
171
172
173
174
175
176
177
178
179
180
181
182
183
184
185
186
187
188
189
190
191
192
193
194
195
196
197
198
199
200
201
202
203
204
205
206
207
208
209
210
211
212
213
214
215
216
217
218
219
220
221
222
223
224
225
226
227
228
229
230
231
232
233
234
235
236
237
238
239
240
241
242
243
244
245
246
247
248
249
250
251
252
253
254
255
256
257
258
259
260
261
262
263
264
265
266
267
268
269
270
271
272
273
274
275
276
277
278
279
280
281
282
283
284
285
286
287
288
289
290
291
292
293
294
295
296
297
298
299
300
301
302
303
304
305
306
307
308
309
310
311
312
313
314
315
316
317
318
319
320
321
322
323
324
325
326
327
328
329
330
331
332
333
334
335
336
337
338
339
340
341
342
343
344
345
346
347
348
349
SCALARS type int 1
LOOKUP_TABLE default
0
0
0
0
0
0
0
0
0
0
0
0
0
0
0
0
0
0
0
0
0
0
0
0
0
0
0
0
0
0
0
0
0
0
0
0
0
0
0
0
0
0
0
0
0
0
0
0
0
0
0
0
0
0
0
0
0
0
0
0
0
0
0
0
0
0
0
0
0
0
0
0
0
0
0
0
0
0
0
0
0
0
0
0
0
0
0
0
0
0
0
0
0
0
0
0
0
0
0
0
0
0
0
0
0
0
0
0
0
0
0
0
0
0
0
0
0
0
0
0
0
0
0
0
0
0
0
0
0
0
0
0
0
0
0
0
0
0
0
0
0
0
0
0
0
0
0
0
0
0
0
0
0
0
0
0
0
0
0
0
0
0
0
0
0
0
0
0
0
0
0
0
0
0
0
0
0
0
0
0
0
0
0
0
0
0
0
0
0
0
0
0
0
0
0
0
0
0
0
0
0
0
0
0
0
0
0
0
0
0
0
0
0
0
0
0
0
0
0
0
0
0
0
0
0
0
0
0
0
0
0
0
0
0
0
0
0
0
0
0
0
0
0
0
0
0
0
0
0
0
0
0
0
0
0
0
0
0
0
0
0
0
0
0
0
0
0
0
0
0
0
0
0
0
0
0
0
0
0
0
0
0
0
0
0
0
0
0
0
0
0
0
0
0
0
0
0
0
0
0
0
0
0
0
0
0
0
0
0
0
0
0
0
0
0
0
0
0
0
0
0
0
0
0
0
0
0
0
0
0
0
0
0
0
0
0
0
0
0
0
0
0
0
0
0
0
0
0
0
0
SCALARS damp_viscous double 1
LOOKUP_TABLE default
0
0
0
0
0
0
0
0
0
0
0
0
0
0
0
0
0
0
0
0
0
0
0
0
0
0
0
0
0
0
0
0
0
0
0
0
0
0
0
0
0
0
0
0
0
0
0
0
0
0
0
0
0
0
0
0
0
0
0
0
0
0
0
0
0
0
0
0
0
0
0
0
0
0
0
0
0
0
0
0
0
0
0
0
0
0
0
0
0
0
0
0
0
0
0
0
0
0
0
0
0
0
0
0
0
0
0
0
0
0
0
0
0
0
0
0
0
0
0
0
0
0
0
0
0
0
0
0
0
0
0
0
0
0
0
0
0
0
0
0
0
0
0
0
0
0
0
0
0
0
0
0
0
0
0
0
0
0
0
0
0
0
0
0
0
0
0
0
0
0
0
0
0
0
0
0
0
0
0
0
0
0
0
0
0
0
0
0
0
0
0
0
0
0
0
0
0
0
0
0
0
0
0
0
0
0
0
0
0
0
0
0
0
0
0
0
0
0
0
0
0
0
0
0
0
0
0
0
0
0
0
0
0
0
0
0
0
0
0
0
0
0
0
0
0
0
0
0
0
0
0
0
0
0
0
0
0
0
0
0
0
0
0
0
0
0
0
0
0
0
0
0
0
0
0
0
0
0
0
0
0
0
0
0
0
0
0
0
0
0
0
0
0
0
0
0
0
0
0
0
0
0
0
0
0
0
0
0
0
0
0
0
0
0
0
0
0
0
0
0
0
0
0
0
0
0
0
0
0
0
0
0
0
0
0
0
0
0
0
0
0
0
0
0
0
0
0
0
0
0
SCALARS damp_numerical double 1
LOOKUP_TABLE default
0.5
0.5
0.5
0.5
0.5
0.5
0.5
0.5
0.5
0.5
0.5
0.5
0.5
0.5
0.5
0.5
0.5
0.5
0.5
0.5
0.5
0.5
0.5
0.5
0.5
0.5
0.5
0.5
0.5
0.5
0.5
0.5
0.5
0.5
0.5
0.5
0.5
0.5
0.5
0.5
0.5
0.5
0.5
0.5
0.5
0.5
0.5
0.5
0.5
0.5
0.5
0.5
0.5
0.5
0.5
0.5
0.5
0.5
0.5
0.5
0.5
0.5
0.5
0.5
0.5
0.5
0.5
0.5
0.5
0.5
0.5
0.5
0.5
0.5
0.5
0.5
0.5
0.5
0.5
0.5
0.5
0.5
0.5
0.5
0.5
0.5
0.5
0.5
0.5
0.5
0.5
0.5
0.5
0.5
0.5
0.5
0.5
0.5
0.5
0.5
0.5
0.5
0.5
0.5
0.5
0.5
0.5
0.5
0.5
0.5
0.5
0.5
0.5
0.5
0.5
0.5
0.5
0.5
0.5
0.5
0.5
0.5
0.5
0.5
0.5
0.5
0.5
0.5
0.5
0.5
0.5
0.5
0.5
0.5
0.5
0.5
0.5
0.5
0.5
0.5
0.5
0.5
0.5
0.5
0.5
0.5
0.5
0.5
0.5
0.5
0.5
0.5
0.5
0.5
0.5
0.5
0.5
0.5
0.5
0.5
0.5
0.5
0.5
0.5
0.5
0.5
0.5
0.5
0.5
0.5
0.5
0.5
0.5
0.5
0.5
0.5
0.5
0.5
0.5
0.5
0.5
0.5
0.5
0.5
0.5
0.5
0.5
0.5
0.5
0.5
0.5
0.5
0.5
0.5
0.5
0.5
0.5
0.5
0.5
0.5
0.5
0.5
0.5
0.5
0.5
0.5
0.5
0.5
0.5
0.5
0.5
0.5
0.5
0.5
0.5
0.5
0.5
0.5
0.5
0.5
0.5
0.5
0.5
0.5
0.5
0.5
0.5
0.5
0.5
0.5
0.5
0.5
0.5
0.5
0.5
0.5
0.5
0.5
0.5
0.5
0.5
0.5
0.5
0.5
0.5
0.5
0.5
0.5
0.5
0.5
0.5
0.5
0.5
0.5
0.5
0.5
0.5
0.5
0.5
0.5
0.5
0.5
0.5
0.5
0.5
0.5
0.5
0.5
0.5
0.5
0.5
0.5
0.5
0.5
0.5
0.5
0.5
0.5
0.5
0.5
0.5
0.5
0.5
0.5
0.5
0.5
0.5
0.5
0.5
0.5
0.5
0.5
0.5
0.5
0.5
0.5
0.5
0.5
0.5
0.5
0.5
0.5
0.5
0.5
0.5
0.5
0.5
0.5
0.5
0.5
0.5
0.5
0.5
0.5
0.5
0.5
0.5
0.5
0.5
0.5
0.5
0.5
0.5
0.5
0.5
0.5
0.5
0.5
0.5
0.5
0.5
0.5
0.5
0.5
0.5
0.5
0.5
0.5
0.5
0.5
0.5
0.5
0.5
0.5
0.5
0.5
0.5
0.5
0.5
0.5
SCALARS quat double 4
LOOKUP_TABLE default
0.979531 0.0938413 -0.0391751 0.173716 
0.521353 0.183798 0.827418 0.0989329 
0.998289 0.0353186 -0.0465114 -0.00274997 
-0.411756 -0.303314 -0.731555 -0.45087 
0.273096 0.794056 0.473679 0.265559 
0.819417 -0.232325 -0.174545 0.49408 
0.413693 0.0947015 0.606505 0.67234 
0.943308 0.0717019 0.284791 0.154669 
-0.115604 0.744123 0.656614 -0.0421374 
0.31363 0.11565 0.0279026 0.942063 
0.923632 -0.0281146 -0.00414967 0.382224 
0.928682 -0.305743 -0.0511368 0.203607 
0.0603359 0.511769 0.477452 0.711683 
0.617332 0.71561 0.313385 -0.0927027 
0.652113 0.590586 -0.328466 0.343608 
0.997091 0.0619043 -0.0344876 -0.0280707 
0.637644 0.0344235 0.0130374 0.769452 
0.974833 0.077299 0.00305602 0.209086 
0.968944 0.108756 -0.0784759 0.207754 
-0.845304 0.342185 0.409823 -0.0204023 
0.983803 -0.0172961 0.177765 -0.0152206 
-0.180401 0.547309 -0.523463 0.62761 
0.839771 -0.20132 -0.495383 -0.0940815 
0.594245 0.737205 -0.302333 -0.109525 
0.983887 0.105245 -0.0987524 0.105539 
0.985362 0.108123 0.0479298 0.122777 
0.0678829 0.196306 0.978111 -0.0124562 
0.997577 0.00907102 0.0244335 0.0645058 
0.599366 -0.262217 -0.58174 0.483302 
0.384931 0.251437 0.810262 0.363433 
0.805986 0.15657 0.480759 0.307804 
0.345772 0.232128 0.771307 0.481295 
0.678393 0.5379 0.440049 0.238333 
0.31498 0.13368 0.0543874 0.938062 
0.354984 0.78803 0.368824 -0.342001 
0.550041 0.0815347 0.0122481 0.831058 
0.542312 0.356366 0.570848 0.503025 
0.213029 0.475419 0.778278 -0.35054 
0.767597 -0.557677 -0.312749 0.0444883 
0.41944 0.707599 0.113962 -0.557124 
0.972261 0.0996474 -0.150735 0.148517 
0.733668 0.158563 -0.013304 0.660615 
0.980463 0.00352458 0.0641277 0.185922 
0.0154379 0.81428 0.559306 -0.154556 
0.732639 -0.147435 -0.663695 -0.0318143 
0.830217 0.476726 -0.27201 0.097379 
0.399203 -0.441086 0.498662 -0.63041 
-0.82553 0.495053 -0.258337 0.0817572 
0.444092 0.739238 -0.391781 0.32065 
-0.810092 0.551119 0.125175 -0.156044 
0.959004 0.141842 -0.245332 0.00181994 
-0.0890469 0.215078 0.972497 0.00779906 
0.997273 -0.0616447 0.0374623 0.0156146 
0.618616 -0.284466 -0.0582849 -0.730066 
-0.596484 0.489254 0.398587 -0.495949 
-0.54907 0.35409 0.529447 -0.541136 
-0.174827 0.564607 0.793782 0.143403 
0.795865 -0.565812 -0.204186 -0.0690121 
-0.398627 0.18359 0.281296 -0.853384 
-0.0451726 -0.927602 -0.263736 0.260685 
-0.0761729 0.600287 0.596345 -0.527471 
0.714299 -0.671183 -0.077967 0.182244 
-0.172451 0.282785 -0.0461083 0.942426 
-0.166253 0.303532 0.916626 0.200062 
-0.113533 0.250389 0.943077 -0.187142 
0.905802 0.230245 -0.355194 -0.018658 
0.405051 -0.648713 -0.141486 0.628559 
0.981371 -0.0327149 0.0161481 0.188627 
0.889135 -0.0348047 0.4258 -0.164079 
-0.858062 -0.43024 -0.0720027 0.270996 
0.602037 -0.512298 -0.60856 0.0689694 
-0.530242 -0.843957 0.0621651 0.0521118 
0.292508 0.27041 -0.550652 -0.733553 
-0.599999 0.736196 -0.306349 -0.0645546 
0.948783 -0.27218 0.00225867 -0.160386 
0.920331 0.243656 -0.299793 -0.0612058 
0.736577 0.15761 0.645604 0.125734 
0.991101 -0.0709897 -0.10965 -0.0256333 
0.796937 0.12583 -0.321454 -0.495707 
-0.288335 -0.165159 -0.403543 -0.852489 
0.793799 0.425039 -0.229619 -0.369458 
0.746823 -0.426368 -0.203522 0.468022 
0.790455 -0.604231 -0.099835 0.0108852 
-0.0623032 0.824159 -0.168842 0.537004 
0.582772 0.607628 0.151066 0.518019 
0.928865 -0.123024 0.0163291 0.34901 
0.163398 -0.739794 -0.647004 0.085974 
-0.216498 -0.329868 -0.702287 0.592545 
0.741658 0.632129 0.00661428 -0.224305 
-0.279894 -0.550369 -0.225633 0.753554 
0.957775 -0.0905714 0.204081 -0.181148 
-0.44898 0.883385 -0.134241 0.00518654 
0.941839 0.037411 -0.0924897 0.320914 
0.898474 -0.254436 0.350234 0.0730934 
0.802426 -0.039302 0.41809 -0.423991 
0.592183 -0.643201 -0.0583765 -0.481875 
0.545006 -0.368194 0.362847 0.660109 
0.460124 0.11059 -0.645863 0.599096 
-0.591295 0.625346 -0.0676152 -0.504718 
0.98956 0.0773065 -0.0654055 -0.102554 
0.952738 0.171906 0.000997929 -0.250476 
0.233199 0.666095 0.287033 0.647725 
0.474985 0.426239 -0.758628 -0.13112 
-0.0201321 -0.973772 -0.0922746 -0.206997 
-0.291276 -0.697429 -0.277087 -0.593275 
0.944479 -0.192346 0.184349 0.192294 
-0.528569 0.690612 0.493517 0.0105651 
-0.61285 0.703071 -0.135377 0.334333 
0.429414 0.856822 0.135489 -0.251201 
-0.169932 0.368217 -0.88125 0.24277 
0.547864 -0.637999 -0.355538 0.407915 
0.0222917 -0.459477 0.0144666 0.887792 
0.0780309 -0.0474922 0.336525 -0.937233 
0.972588 0.00519247 0.231976 -0.0152557 
0.386275 0.450385 -0.226025 0.772565 
0.995611 -0.0170781 -0.0819547 0.0418299 
0.744136 -0.340169 0.357424 0.450327 
0.860862 0.0899703 -0.166009 0.472508 
0.910478 0.0394018 0.0163461 0.411351 
0.393538 0.28148 -0.714312 0.505624 
0.355225 0.609869 0.117463 -0.698625 
-0.028567 -0.14484 -0.589551 0.794125 
-0.366802 -0.171538 -0.685125 -0.605504 
-0.938186 -0.273414 -0.146619 0.153478 
0.892898 -0.415636 0.0748089 0.156155 
0.651255 0.347935 -0.665392 -0.109827 
-0.340134 0.0896652 0.920631 0.169436 
0.621434 0.34907 -0.579039 -0.395834 
0.247786 -0.393718 0.853276 0.235602 
-0.459321 -0.388284 0.431501 0.672359 
-0.261665 0.390196 0.882265 -0.0297864 
-0.865776 -0.0376069 0.496196 0.0529794 
0.912566 -0.197861 0.113543 0.339385 
0.318949 0.925901 0.194154 -0.0573077 
-0.267681 -0.352733 0.831699 -0.334967 
0.531021 -0.445561 -0.0674093 0.717599 
0.607517 -0.679919 -0.407794 0.0483466 
0.779535 0.45778 0.425522 0.0411495 
-0.101377 0.83055 0.44482 -0.319445 
-0.369562 0.891318 0.168138 0.201755 
0.578833 0.353923 -0.730238 0.0802726 
0.668222 -0.234686 -0.147433 0.690409 
0.861768 0.280107 0.116378 0.406635 
0.987961 -0.112942 -0.0995368 0.0356177 
0.0239572 -0.361823 -0.802089 -0.474514 
0.593435 -0.793069 0.13353 -0.0323503 
0.770817 -0.139867 0.603408 0.148923 
0.426508 -0.861021 0.161363 0.225156 
-0.108242 -0.702616 -0.0345199 -0.70244 
-0.223179 0.974346 0.00771206 -0.0279655 
0.494112 -0.0770823 0.769163 -0.397869 
0.386535 0.0511817 0.909505 0.144123 
0.8048 -0.137518 0.375021 -0.439027 
-0.930971 0.0751328 0.197638 -0.297635 
-0.481062 -0.292028 -0.482803 0.67097 
0.504062 -0.0724593 -0.715649 0.478035 
0.485718 -0.195614 -0.479935 0.7039 
0.140906 -0.936115 -0.279631 0.160126 
0.91215 0.0918317 -0.0268648 0.398533 
-0.177676 0.357087 -0.411151 0.81968 
-0.313793 0.839383 0.403289 0.185279 
0.383244 0.0277655 0.819687 0.424813 
-0.263822 -0.597099 -0.651231 -0.386998 
0.988239 0.064988 -0.105214 -0.0899467 
-0.0481512 -0.841472 0.537264 0.0308901 
0.628194 0.304949 -0.711704 0.0765146 
0.686521 0.017727 -0.058733 0.724517 
0.856901 0.48549 0.112602 0.131685 
-0.36633 0.922741 0.115421 0.0320924 
-0.527994 -0.482101 0.114528 -0.689699 
-0.262447 -0.905797 -0.100902 0.316972 
0.15781 0.637682 0.514625 0.551016 
0.739766 -0.203583 0.518345 -0.377648 
0.0286044 -0.893822 0.206991 0.39676 
0.844481 -0.351993 -0.391688 -0.0976406 
0.632781 -0.527094 0.510065 -0.248181 
-0.439276 -0.883068 0.158951 0.0442886 
0.993559 0.0952571 -0.060846 -0.00802426 
-0.924796 -0.115144 0.156284 -0.327214 
-0.0212482 0.256332 -0.760014 -0.596843 
0.878866 -0.252741 -0.174603 0.365008 
0.829229 -0.22615 0.50953 -0.040183 
-0.808856 0.580957 0.0907521 -0.00235333 
-0.557273 0.727828 0.0253796 0.398835 
-0.0853751 0.840966 0.525137 -0.0985764 
0.810534 0.361112 0.432388 0.16023 
0.097865 0.0775224 0.40172 -0.907212 
0.270494 0.213172 0.565522 0.749383 
0.95147 0.106257 -0.230577 0.173921 
0.228083 0.899936 -0.255964 0.269398 
0.906628 -0.283837 0.260341 -0.172294 
0.507086 0.609253 -0.0823051 0.60407 
0.900922 0.242023 0.186608 -0.308128 
0.924733 -0.326922 0.0113109 -0.194585 
0.511871 -0.103623 -0.759911 0.387021 
-0.876712 0.455307 -0.146023 0.0524271 
-0.191795 0.452865 -0.585614 0.644348 
0.107963 0.966178 0.22005 -0.0801347 
-0.958655 0.0769099 -0.199993 0.187267 
-0.046189 0.898873 0.433418 -0.0452035 
0.941122 -0.234151 0.182609 -0.161605 
0.295168 0.79692 0.13926 0.508331 
0.550769 -0.563858 0.613749 -0.0450586 
0.749798 -0.204816 0.620184 -0.105949 
0.516341 -0.703326 -0.483414 0.0709611 
-0.0349397 0.240928 0.919974 0.307216 
-0.312945 0.537157 0.274631 0.733557 
-0.324224 0.720651 -0.600824 0.120628 
0.421912 0.79414 0.167119 0.404232 
0.147989 -0.351929 -0.673155 0.63333 
0.946328 -0.187924 -0.143509 0.220348 
0.244893 -0.83832 -0.48214 0.069199 
-0.474689 0.359972 -0.221349 0.772072 
-0.37544 0.628905 0.644187 0.220332 
0.242061 0.828311 0.0844238 0.498177 
0.69001 -0.0560499 0.721626 -0.00059825 
0.522217 0.631297 -0.0916046 0.566006 
0.889145 -0.0131709 -0.177539 -0.421578 
0.80389 -0.529107 -0.271065 -0.0182037 
0.268201 0.305741 -0.909872 -0.0819933 
0.649128 -0.745793 -0.127028 -0.0793081 
0.597751 -0.245938 0.759222 -0.076087 
0.840042 0.100416 0.207322 0.491186 
0.215077 -0.907015 0.328124 -0.152974 
0.994112 0.0986092 -0.0166302 -0.0417343 
0.857303 -0.0920325 0.0429182 -0.504698 
-0.110667 -0.0689312 0.608725 -0.782595 
0.545333 0.0106463 -0.543955 0.63766 
0.528338 0.394262 -0.687513 0.304536 
0.0834549 0.400867 0.800496 0.437662 
0.899261 -0.329406 -0.0650313 0.280342 
0.133519 -0.162294 0.956993 -0.199995 
0.701118 -0.680899 -0.152693 -0.146608 
0.410109 0.812497 -0.0153259 0.414034 
0.104424 0.807926 0.55822 -0.157294 
0.778873 0.341051 0.476667 0.223226 
-0.600556 -0.078761 0.770171 0.199912 
-0.228082 0.569047 0.290168 0.734824 
0.762811 -0.43866 0.0145416 0.474853 
0.93814 -0.188149 -0.135588 0.257118 
0.880137 0.194144 0.308534 0.304095 
-0.463742 0.724247 -0.316238 0.400505 
0.861974 -0.283085 -0.291236 -0.303391 
0.387928 0.796582 0.44976 -0.112626 
0.874339 0.128598 0.156991 0.440848 
0.795684 0.60362 -0.0419473 0.0277589 
-0.038353 -0.633156 0.766466 -0.100858 
0.633681 -0.524846 0.427395 -0.374592 
0.597564 0.763701 0.0883305 0.227764 
0.518989 0.766767 0.377762 0.00389841 
0.213772 0.454093 -0.85203 0.148818 
-0.594273 0.493029 0.595163 0.222585 
-0.868358 -0.387522 -0.093125 -0.295142 
0.0752596 0.0776121 -0.974684 0.195714 
-0.533074 0.327471 -0.57163 0.53088 
0.693184 0.111022 0.674433 0.228714 
-0.630847 -0.145459 0.739106 0.186 
-0.199787 0.812753 0.339296 0.429413 
0.507585 0.682137 0.518353 0.0914183 
0.314089 0.174121 0.203631 0.910804 
0.903584 0.297165 0.153123 0.267922 
0.52013 -0.0850815 0.798569 0.290712 
0.425417 -0.133485 -0.699146 0.558925 
0.40703 0.848825 0.29827 0.157666 
0.705501 0.613417 0.211461 0.285081 
0.225961 -0.385854 0.114177 -0.887143 
-0.531291 -0.39184 0.157698 -0.734386 
0.942983 -0.238915 -0.176765 0.149857 
0.921826 0.302526 0.130828 0.203958 
0.475901 -0.296229 0.819837 -0.116763 
0.897992 -0.437815 0.0437321 0.0041447 
0.470977 -0.0484864 0.825337 0.307651 
0.81909 0.175011 0.088631 0.53908 
0.412272 -0.554652 0.628753 0.356458 
0.998027 -0.0625777 -0.00478726 -0.00153752 
0.767033 0.354726 -0.507938 0.166818 
0.519709 0.138249 0.183621 -0.822844 
-0.7548 -0.319119 0.524768 -0.230343 
-0.787545 -0.329161 0.163851 0.49455 
0.874655 0.00880037 -0.482061 0.050192 
0.723662 0.0898956 0.422501 -0.53826 
-0.373884 -0.456466 0.7707 0.240565 
-0.668603 -0.0350225 -0.687947 -0.280131 
-0.390965 0.417203 0.494635 0.654541 
0.102208 0.591543 0.291337 0.744817 
0.833988 0.308933 0.326073 0.32047 
0.380617 -0.692655 0.487625 0.370919 
0.259651 -0.105681 -0.148384 -0.948365 
0.568586 0.667077 0.48137 -0.000343244 
0.853837 0.294559 0.0165721 0.428863 
0.712438 -0.223096 -0.487147 0.453153 
0.147095 -0.695604 -0.702091 0.0395888 
0.623252 -0.333962 -0.133077 0.69449 
0.744281 0.323702 0.272675 0.516635 
0.0450456 0.0655248 0.996812 0.00665051 
0.932539 0.359589 -0.0292289 0.0145986 
0.343313 0.381149 0.411195 0.753512 
0.636712 0.270479 -0.245264 0.679179 
-0.185058 -0.88389 0.409071 -0.130967 
0.392958 0.863541 0.313837 -0.037252 
-0.0527615 0.922605 0.303893 -0.231657 
-0.657882 -0.7005 -0.0173769 0.276024 
0.9224 0.0542163 -0.149729 0.351879 
-0.166799 -0.428734 0.86597 -0.196115 
-0.333936 -0.301887 0.423754 -0.785992 
0.957727 -0.177602 -0.0242916 0.225002 
-0.207843 0.964139 -0.132546 0.0983343 
-0.669865 -0.474624 0.408207 -0.399224 
0.338524 0.527674 0.138782 0.766617 
0.258544 0.356842 0.327673 0.835733 
0.912916 0.234739 0.234131 0.238043 
0.904276 -0.334564 -0.0738737 -0.254745 
0.454996 0.169698 0.696681 -0.528031 
0.832489 0.487428 0.256572 0.059555 
0.792844 0.380584 -0.0872141 0.46792 
0.756987 -0.176587 -0.360902 -0.515303 
-0.611266 -0.302075 0.371598 -0.630095 
0.979289 0.184297 0.0838218 -0.00159134 
0.0563761 -0.307022 -0.120315 -0.942382 
-0.24588 0.431209 -0.738518 0.456283 
0.998432 0.0559479 -0.00155868 3.92621e-05 
0.173242 0.0423601 0.456315 0.871762 
-0.258675 -0.805016 0.400265 -0.353305 
-0.927057 0.359195 -0.0460942 0.0970532 
0.962678 0.0818683 0.233581 -0.109489 
0.820653 -0.423442 0.306692 0.230577 
0.597773 0.18965 -0.730817 0.269456 
0.700053 0.675512 0.226877 -0.0462221 
0.910545 0.196488 -0.123257 0.34221 
0.516883 0.137341 0.803948 0.26007 
0.39195 0.406519 0.817061 0.116312 
0.518153 -0.0643374 0.426648 0.738478 
0.584494 -0.0582628 0.77478 0.233857 
-0.547945 0.663309 0.368778 -0.351823 
0.176153 0.523808 0.418722 0.720602 
0.907485 0.19221 0.316201 0.198854 
0.477195 -0.233021 0.256641 -0.80754 