# vtk DataFile Version 2.0
Generated by NetDEM
ASCII 
DATASET POLYDATA
POINTS 225 double
-0.416995 -0.405318 -0.462819 
-0.403333 -0.203333 -0.450062 
-0.412812 -0.00760175 -0.464617 
-0.40295 0.19705 -0.450062 
-0.402763 0.397237 -0.450062 
-0.263067 -0.430853 -0.458846 
-0.203538 -0.203538 -0.450062 
-0.203218 -0.00321788 -0.450062 
-0.174233 0.191552 -0.461894 
-0.246788 0.369313 -0.464989 
-0.030693 -0.411552 -0.455588 
-0.00366947 -0.203669 -0.450062 
-0.00360232 -0.00360232 -0.450062 
0.0438882 0.154506 -0.45103 
-0.0372286 0.39339 -0.465057 
0.188999 -0.398155 -0.464424 
0.17443 -0.212609 -0.465005 
0.172837 -0.00966655 -0.46262 
0.158147 0.213092 -0.464449 
0.196913 0.396913 -0.450062 
0.396713 -0.403287 -0.450062 
0.39661 -0.20339 -0.450062 
0.396488 -0.00351175 -0.450062 
0.396508 0.196508 -0.450062 
0.373135 0.449872 -0.462267 
-0.403057 -0.399218 -0.388085 
-0.403333 -0.203333 -0.350117 
-0.416973 -0.00965457 -0.391212 
-0.40295 0.19705 -0.350117 
-0.402763 0.397237 -0.350117 
-0.291419 -0.401653 -0.377521 
-0.203538 -0.203538 -0.350117 
-0.203218 -0.00321788 -0.350116 
-0.275855 0.173553 -0.437147 
-0.152613 0.399491 -0.443416 
-0.0296679 -0.39479 -0.370753 
-0.00366947 -0.203669 -0.350116 
-0.00360232 -0.00360232 -0.350117 
0.00634149 0.213786 -0.408165 
0.0142408 0.36944 -0.385968 
0.187522 -0.396493 -0.391976 
0.194016 -0.209951 -0.392179 
0.185474 -0.0140211 -0.384014 
0.189823 0.152238 -0.398276 
0.196913 0.396913 -0.350117 
0.396713 -0.403287 -0.350116 
0.39661 -0.20339 -0.350117 
0.396488 -0.00351175 -0.350116 
0.396508 0.196508 -0.350116 
0.386004 0.386219 -0.400993 
-0.401553 -0.403276 -0.315919 
-0.403333 -0.203333 -0.250164 
-0.401611 -0.00284977 -0.310943 
-0.40295 0.19705 -0.250164 
-0.402763 0.397237 -0.250165 
-0.193468 -0.403295 -0.406117 
-0.203538 -0.203538 -0.250164 
-0.203218 -0.00321788 -0.250164 
-0.213277 0.197721 -0.365441 
-0.20226 0.420737 -0.367971 
-0.00288898 -0.40335 -0.281944 
-0.00366947 -0.203669 -0.250163 
-0.00360232 -0.00360232 -0.250164 
-0.0231584 0.215941 -0.32167 
0.0581817 0.369677 -0.311788 
0.175838 -0.394884 -0.317822 
0.180999 -0.191754 -0.30358 
0.187222 0.00180598 -0.309088 
0.239985 0.132711 -0.330492 
0.196913 0.396913 -0.250165 
0.396713 -0.403287 -0.250163 
0.39661 -0.20339 -0.250165 
0.396488 -0.00351175 -0.250163 
0.396508 0.196508 -0.250164 
0.404039 0.355283 -0.322446 
-0.40979 -0.404601 -0.239686 
-0.403333 -0.203333 -0.150204 
-0.400416 0.00223578 -0.233264 
-0.40295 0.19705 -0.150204 
-0.402763 0.397237 -0.150205 
-0.136351 -0.401923 -0.316062 
-0.203538 -0.203538 -0.150204 
-0.203218 -0.00321788 -0.150203 
-0.164998 0.192129 -0.300716 
-0.206874 0.403449 -0.2755 
0.0148442 -0.399024 -0.195976 
-0.00366947 -0.203669 -0.150202 
-0.00360232 -0.00360232 -0.150204 
-0.00699966 0.176791 -0.254149 
0.012496 0.410686 -0.248378 
0.198777 -0.398969 -0.229739 
0.188061 -0.198889 -0.218137 
0.191617 0.00126367 -0.235408 
0.207095 0.200072 -0.276444 
0.196913 0.396913 -0.150205 
0.396713 -0.403287 -0.150203 
0.39661 -0.20339 -0.150205 
0.396488 -0.00351175 -0.150203 
0.396508 0.196508 -0.150204 
0.396598 0.398785 -0.248908 
-0.407529 -0.408584 -0.156917 
-0.403333 -0.203333 -0.0502363 
-0.398653 -0.00359537 -0.1511 
-0.40295 0.19705 -0.0502368 
-0.402763 0.397237 -0.0502374 
-0.210031 -0.404645 -0.241913 
-0.203538 -0.203538 -0.0502363 
-0.203218 -0.00321788 -0.0502354 
-0.213808 0.195843 -0.215964 
-0.208988 0.395093 -0.198101 
0.00129228 -0.399581 -0.114879 
-0.00366947 -0.203669 -0.0502343 
-0.00360232 -0.00360232 -0.0502362 
-0.00625997 0.207752 -0.174547 
-0.0167025 0.411546 -0.160595 
0.191345 -0.409417 -0.158869 
0.197098 -0.219371 -0.129233 
0.187335 -0.0015539 -0.162045 
0.192354 0.207685 -0.182718 
0.196913 0.396913 -0.0502378 
0.396713 -0.403287 -0.0502353 
0.39661 -0.20339 -0.0502371 
0.396488 -0.00351175 -0.0502352 
0.396508 0.196508 -0.0502358 
0.400926 0.399105 -0.156018 
-0.410037 -0.405196 -0.0754599 
-0.403333 -0.203333 0.0497392 
-0.416486 -0.0031249 -0.0756396 
-0.40295 0.19705 0.0497387 
-0.402763 0.397237 0.049738 
-0.21174 -0.402991 -0.139983 
-0.203538 -0.203538 0.0497392 
-0.203218 -0.00321788 0.0497402 
-0.203948 0.2007 -0.122844 
-0.200827 0.392107 -0.103297 
-0.0131401 -0.398545 -0.0269545 
-0.00366947 -0.203669 0.0497415 
-0.00360232 -0.00360232 0.0497394 
-0.00715998 0.198958 -0.0743734 
-0.00294323 0.391568 -0.0643017 
0.206315 -0.40024 -0.0760866 
0.196308 -0.200809 -0.0370087 
0.190694 -0.00369663 -0.0817659 
0.1988 0.206388 -0.0902963 
0.196913 0.396913 0.0497376 
0.396713 -0.403287 0.0497404 
0.39661 -0.20339 0.0497384 
0.396488 -0.00351175 0.0497405 
0.396508 0.196508 0.0497398 
0.391495 0.400018 -0.0676078 
-0.407277 -0.402435 0.00293474 
-0.403333 -0.203333 0.149723 
-0.404246 -0.00397498 0.0140805 
-0.40295 0.19705 0.149722 
-0.402763 0.397237 0.149722 
-0.199359 -0.401962 -0.0212167 
-0.203538 -0.203538 0.149723 
-0.203218 -0.00321788 0.149724 
-0.203356 0.195063 -0.0202845 
-0.204025 0.395756 -0.00616867 
-0.00946339 -0.406125 0.064082 
-0.00366947 -0.203669 0.149725 
-0.00360232 -0.00360232 0.149723 
0.00117096 0.196199 0.0321754 
-0.00626619 0.394872 0.0237011 
0.194798 -0.402073 -0.00096982 
0.194847 -0.206115 0.0437472 
0.192254 -0.00336142 -0.00823173 
0.192911 0.191912 0.00138684 
0.196913 0.396913 0.149721 
0.396713 -0.403287 0.149724 
0.39661 -0.20339 0.149722 
0.396488 -0.00351175 0.149724 
0.396508 0.196508 0.149723 
0.398589 0.393956 0.037649 
-0.403633 -0.403633 0.146665 
-0.403333 -0.203333 0.249715 
-0.403998 -0.00399844 0.146299 
-0.40295 0.19705 0.249714 
-0.402763 0.397237 0.249713 
-0.203099 -0.403099 0.147199 
-0.203538 -0.203538 0.249715 
-0.203218 -0.00321788 0.249716 
-0.203937 0.196063 0.14636 
-0.203347 0.396653 0.146951 
-0.00314005 -0.403193 0.162962 
-0.00366947 -0.203669 0.249717 
-0.00360232 -0.00360232 0.249715 
-0.00213671 0.197862 0.149127 
-0.00266816 0.397332 0.14763 
0.197698 -0.402302 0.147996 
0.196222 -0.203778 0.14652 
0.197391 -0.00260897 0.147689 
0.197198 0.197198 0.147496 
0.196913 0.396913 0.249713 
0.396713 -0.403287 0.249716 
0.39661 -0.20339 0.249714 
0.396488 -0.00351175 0.249716 
0.396508 0.196508 0.249715 
0.396534 0.396534 0.146831 
-0.403633 -0.403633 0.376119 
-0.403333 -0.203333 0.37642 
-0.403998 -0.00399844 0.375754 
-0.40295 0.19705 0.376802 
-0.402763 0.397237 0.376989 
-0.203099 -0.403099 0.376653 
-0.203538 -0.203538 0.376214 
-0.203218 -0.00321788 0.376534 
-0.203937 0.196063 0.375815 
-0.203347 0.396653 0.376405 
-0.00292062 -0.402921 0.376832 
-0.00366947 -0.203669 0.376083 
-0.00360232 -0.00360232 0.37615 
-0.00217008 0.19783 0.377582 
-0.00266816 0.397332 0.377084 
0.197698 -0.402302 0.37745 
0.196222 -0.203778 0.375974 
0.197391 -0.00260897 0.377143 
0.197198 0.197198 0.37695 
0.196913 0.396913 0.376665 
0.396713 -0.403287 0.376465 
0.39661 -0.20339 0.376362 
0.396488 -0.00351175 0.376241 
0.396508 0.196508 0.37626 
0.396534 0.396534 0.376286 
VERTICES 225 450
1 0
1 1
1 2
1 3
1 4
1 5
1 6
1 7
1 8
1 9
1 10
1 11
1 12
1 13
1 14
1 15
1 16
1 17
1 18
1 19
1 20
1 21
1 22
1 23
1 24
1 25
1 26
1 27
1 28
1 29
1 30
1 31
1 32
1 33
1 34
1 35
1 36
1 37
1 38
1 39
1 40
1 41
1 42
1 43
1 44
1 45
1 46
1 47
1 48
1 49
1 50
1 51
1 52
1 53
1 54
1 55
1 56
1 57
1 58
1 59
1 60
1 61
1 62
1 63
1 64
1 65
1 66
1 67
1 68
1 69
1 70
1 71
1 72
1 73
1 74
1 75
1 76
1 77
1 78
1 79
1 80
1 81
1 82
1 83
1 84
1 85
1 86
1 87
1 88
1 89
1 90
1 91
1 92
1 93
1 94
1 95
1 96
1 97
1 98
1 99
1 100
1 101
1 102
1 103
1 104
1 105
1 106
1 107
1 108
1 109
1 110
1 111
1 112
1 113
1 114
1 115
1 116
1 117
1 118
1 119
1 120
1 121
1 122
1 123
1 124
1 125
1 126
1 127
1 128
1 129
1 130
1 131
1 132
1 133
1 134
1 135
1 136
1 137
1 138
1 139
1 140
1 141
1 142
1 143
1 144
1 145
1 146
1 147
1 148
1 149
1 150
1 151
1 152
1 153
1 154
1 155
1 156
1 157
1 158
1 159
1 160
1 161
1 162
1 163
1 164
1 165
1 166
1 167
1 168
1 169
1 170
1 171
1 172
1 173
1 174
1 175
1 176
1 177
1 178
1 179
1 180
1 181
1 182
1 183
1 184
1 185
1 186
1 187
1 188
1 189
1 190
1 191
1 192
1 193
1 194
1 195
1 196
1 197
1 198
1 199
1 200
1 201
1 202
1 203
1 204
1 205
1 206
1 207
1 208
1 209
1 210
1 211
1 212
1 213
1 214
1 215
1 216
1 217
1 218
1 219
1 220
1 221
1 222
1 223
1 224
POINT_DATA 225
SCALARS id int 1
LOOKUP_TABLE default
0
1
2
3
4
5
6
7
8
9
10
11
12
13
14
15
16
17
18
19
20
21
22
23
24
25
26
27
28
29
30
31
32
33
34
35
36
37
38
39
40
41
42
43
44
45
46
47
48
49
50
51
52
53
54
55
56
57
58
59
60
61
62
63
64
65
66
67
68
69
70
71
72
73
74
75
76
77
78
79
80
81
82
83
84
85
86
87
88
89
90
91
92
93
94
95
96
97
98
99
100
101
102
103
104
105
106
107
108
109
110
111
112
113
114
115
116
117
118
119
120
121
122
123
124
125
126
127
128
129
130
131
132
133
134
135
136
137
138
139
140
141
142
143
144
145
146
147
148
149
150
151
152
153
154
155
156
157
158
159
160
161
162
163
164
165
166
167
168
169
170
171
172
173
174
175
176
177
178
179
180
181
182
183
184
185
186
187
188
189
190
191
192
193
194
195
196
197
198
199
200
201
202
203
204
205
206
207
208
209
210
211
212
213
214
215
216
217
218
219
220
221
222
223
224
SCALARS type int 1
LOOKUP_TABLE default
0
0
0
0
0
0
0
0
0
0
0
0
0
0
0
0
0
0
0
0
0
0
0
0
0
0
0
0
0
0
0
0
0
0
0
0
0
0
0
0
0
0
0
0
0
0
0
0
0
0
0
0
0
0
0
0
0
0
0
0
0
0
0
0
0
0
0
0
0
0
0
0
0
0
0
0
0
0
0
0
0
0
0
0
0
0
0
0
0
0
0
0
0
0
0
0
0
0
0
0
0
0
0
0
0
0
0
0
0
0
0
0
0
0
0
0
0
0
0
0
0
0
0
0
0
0
0
0
0
0
0
0
0
0
0
0
0
0
0
0
0
0
0
0
0
0
0
0
0
0
0
0
0
0
0
0
0
0
0
0
0
0
0
0
0
0
0
0
0
0
0
0
0
0
0
0
0
0
0
0
0
0
0
0
0
0
0
0
0
0
0
0
0
0
0
0
0
0
0
0
0
0
0
0
0
0
0
0
0
0
0
0
0
0
0
0
0
0
0
0
0
0
0
0
0
SCALARS damp_viscous double 1
LOOKUP_TABLE default
0
0
0
0
0
0
0
0
0
0
0
0
0
0
0
0
0
0
0
0
0
0
0
0
0
0
0
0
0
0
0
0
0
0
0
0
0
0
0
0
0
0
0
0
0
0
0
0
0
0
0
0
0
0
0
0
0
0
0
0
0
0
0
0
0
0
0
0
0
0
0
0
0
0
0
0
0
0
0
0
0
0
0
0
0
0
0
0
0
0
0
0
0
0
0
0
0
0
0
0
0
0
0
0
0
0
0
0
0
0
0
0
0
0
0
0
0
0
0
0
0
0
0
0
0
0
0
0
0
0
0
0
0
0
0
0
0
0
0
0
0
0
0
0
0
0
0
0
0
0
0
0
0
0
0
0
0
0
0
0
0
0
0
0
0
0
0
0
0
0
0
0
0
0
0
0
0
0
0
0
0
0
0
0
0
0
0
0
0
0
0
0
0
0
0
0
0
0
0
0
0
0
0
0
0
0
0
0
0
0
0
0
0
0
0
0
0
0
0
0
0
0
0
0
0
SCALARS damp_numerical double 1
LOOKUP_TABLE default
0.5
0.5
0.5
0.5
0.5
0.5
0.5
0.5
0.5
0.5
0.5
0.5
0.5
0.5
0.5
0.5
0.5
0.5
0.5
0.5
0.5
0.5
0.5
0.5
0.5
0.5
0.5
0.5
0.5
0.5
0.5
0.5
0.5
0.5
0.5
0.5
0.5
0.5
0.5
0.5
0.5
0.5
0.5
0.5
0.5
0.5
0.5
0.5
0.5
0.5
0.5
0.5
0.5
0.5
0.5
0.5
0.5
0.5
0.5
0.5
0.5
0.5
0.5
0.5
0.5
0.5
0.5
0.5
0.5
0.5
0.5
0.5
0.5
0.5
0.5
0.5
0.5
0.5
0.5
0.5
0.5
0.5
0.5
0.5
0.5
0.5
0.5
0.5
0.5
0.5
0.5
0.5
0.5
0.5
0.5
0.5
0.5
0.5
0.5
0.5
0.5
0.5
0.5
0.5
0.5
0.5
0.5
0.5
0.5
0.5
0.5
0.5
0.5
0.5
0.5
0.5
0.5
0.5
0.5
0.5
0.5
0.5
0.5
0.5
0.5
0.5
0.5
0.5
0.5
0.5
0.5
0.5
0.5
0.5
0.5
0.5
0.5
0.5
0.5
0.5
0.5
0.5
0.5
0.5
0.5
0.5
0.5
0.5
0.5
0.5
0.5
0.5
0.5
0.5
0.5
0.5
0.5
0.5
0.5
0.5
0.5
0.5
0.5
0.5
0.5
0.5
0.5
0.5
0.5
0.5
0.5
0.5
0.5
0.5
0.5
0.5
0.5
0.5
0.5
0.5
0.5
0.5
0.5
0.5
0.5
0.5
0.5
0.5
0.5
0.5
0.5
0.5
0.5
0.5
0.5
0.5
0.5
0.5
0.5
0.5
0.5
0.5
0.5
0.5
0.5
0.5
0.5
0.5
0.5
0.5
0.5
0.5
0.5
0.5
0.5
0.5
0.5
0.5
0.5
0.5
0.5
0.5
0.5
0.5
0.5
SCALARS quat double 4
LOOKUP_TABLE default
0.980061 0.0832052 -0.0202073 0.1793 
0.422936 0.19358 0.881935 0.076436 
0.993179 0.0641888 -0.0973395 0.000329806 
0.933896 0.135683 0.0158348 0.330419 
0.218235 0.323535 0.831742 0.394847 
0.779514 -0.219422 -0.160674 0.564266 
0.259029 0.245797 0.696789 0.622072 
0.947128 0.0660144 0.273627 0.154011 
-0.102762 0.87781 0.438222 0.16386 
0.280027 0.128093 0.0595248 0.949544 
0.915252 0.123011 0.108132 0.368088 
0.895604 0.01201 0.325206 0.3033 
0.115508 0.577388 0.641376 0.491851 
0.354272 0.796189 0.488904 0.0393326 
0.798738 0.140618 -0.032838 0.584094 
0.994984 0.0478878 -0.0878102 -0.00194354 
0.659457 0.139834 0.000910266 0.738621 
0.9755 0.0879241 -0.0149272 0.201114 
0.971158 0.0685269 -0.0793322 0.214157 
0.872998 0.106465 0.203002 0.430499 
1 0.000646178 0.000193913 0.000461524 
0.464545 0.197074 0.639242 0.580284 
0.80546 0.16019 0.208233 0.531236 
0.973067 0.0554567 0.156413 0.16 
0.997883 -0.0321795 -0.0503963 0.0255718 
0.981839 0.106616 -0.0532097 0.147625 
0.422936 0.19358 0.881935 0.076436 
0.982533 0.0156578 -0.173146 0.0663697 
0.933896 0.135683 0.0158348 0.330419 
0.218235 0.323535 0.831742 0.394847 
0.727724 0.109575 0.645787 0.203397 
0.259029 0.245797 0.696789 0.622072 
0.947128 0.0660144 0.273627 0.154011 
0.262263 0.318759 0.287705 0.864197 
0.196074 0.846058 0.340109 -0.360648 
0.914024 0.175188 0.211905 0.29827 
0.895604 0.01201 0.325206 0.3033 
0.115508 0.577388 0.641376 0.491851 
0.765017 -0.533454 -0.360729 -0.00705971 
0.456149 0.819223 0.319009 0.137965 
0.958993 0.0727152 -0.194226 0.193189 
0.731845 0.28521 0.0173441 0.618674 
0.979208 0.0833281 0.0556247 0.176389 
0.398707 0.76383 0.500455 0.0844981 
0.872998 0.106465 0.203002 0.430499 
1 0.000646178 0.000193913 0.000461524 
0.464545 0.197074 0.639242 0.580284 
0.80546 0.16019 0.208233 0.531236 
0.973067 0.0554567 0.156413 0.16 
-0.277082 0.871014 0.402606 0.0496793 
0.961503 0.152988 -0.180333 0.139951 
0.422936 0.19358 0.881935 0.076436 
0.980621 0.0410828 -0.171714 0.0849085 
0.933896 0.135683 0.0158348 0.330419 
0.218235 0.323535 0.831742 0.394847 
-0.339928 0.367192 0.856805 -0.124514 
0.259029 0.245797 0.696789 0.622072 
0.947128 0.0660144 0.273627 0.154011 
-0.246719 0.665622 0.0928525 -0.69818 
0.272257 -0.502532 -0.292663 0.766606 
0.753348 0.383222 0.515955 0.139278 
0.895604 0.01201 0.325206 0.3033 
0.115508 0.577388 0.641376 0.491851 
-0.241459 0.719302 0.638578 0.12853 
0.862467 0.15548 -0.0119324 0.481492 
0.946256 0.115552 -0.289628 0.0858043 
0.632964 0.324521 0.0027631 0.702876 
0.993319 0.0586925 0.0308162 0.0944659 
0.95286 -0.0465966 0.280719 0.105278 
0.872998 0.106465 0.203002 0.430499 
1 0.000646178 0.000193913 0.000461524 
0.464545 0.197074 0.639242 0.580284 
0.80546 0.16019 0.208233 0.531236 
0.973067 0.0554567 0.156413 0.16 
0.960133 -0.243618 0.0194369 -0.135713 
0.957416 0.165947 -0.225103 0.0717209 
0.422936 0.19358 0.881935 0.076436 
0.960018 0.0847051 -0.264466 0.035328 
0.933896 0.135683 0.0158348 0.330419 
0.218235 0.323535 0.831742 0.394847 
0.952326 -0.235718 -0.0951437 0.168703 
0.259029 0.245797 0.696789 0.622072 
0.947128 0.0660144 0.273627 0.154011 
0.234142 0.548631 0.178379 0.782536 
-0.0685557 0.897467 0.410696 0.14554 
0.901681 0.247693 0.124812 0.331725 
0.895604 0.01201 0.325206 0.3033 
0.115508 0.577388 0.641376 0.491851 
0.987363 -0.0700252 0.0864377 -0.112869 
0.737845 -0.138924 -0.159321 0.641017 
0.975722 0.216992 -0.0281444 -0.00947729 
0.595013 0.571628 -0.0798559 0.559306 
0.971647 0.0748251 -0.00225108 0.224272 
0.962322 -0.168604 -0.0387072 0.209788 
0.872998 0.106465 0.203002 0.430499 
1 0.000646178 0.000193913 0.000461524 
0.464545 0.197074 0.639242 0.580284 
0.80546 0.16019 0.208233 0.531236 
0.973067 0.0554567 0.156413 0.16 
0.614699 0.685758 0.374568 -0.107609 
0.967739 0.15915 -0.162138 0.108918 
0.422936 0.19358 0.881935 0.076436 
0.954115 0.127007 -0.271131 0.00460919 
0.933896 0.135683 0.0158348 0.330419 
0.218235 0.323535 0.831742 0.394847 
0.924524 -0.0555428 0.283927 0.248106 
0.259029 0.245797 0.696789 0.622072 
0.947128 0.0660144 0.273627 0.154011 
0.14393 0.774889 0.500498 0.358235 
0.348353 -0.0390991 -0.197593 0.915466 
0.918617 0.27931 0.0258685 0.278314 
0.895604 0.01201 0.325206 0.3033 
0.115508 0.577388 0.641376 0.491851 
0.774564 0.562909 0.284845 -0.0452369 
0.605752 0.589885 -0.0273607 0.533246 
0.961646 0.227959 -0.152544 -0.00135416 
0.6855 0.401337 -0.0857763 0.601382 
0.953527 0.12396 -0.0527487 0.269514 
0.746081 0.526172 0.211568 0.34892 
0.872998 0.106465 0.203002 0.430499 
1 0.000646178 0.000193913 0.000461524 
0.464545 0.197074 0.639242 0.580284 
0.80546 0.16019 0.208233 0.531236 
0.973067 0.0554567 0.156413 0.16 
0.978085 0.20179 0.0277274 0.0431446 
0.982831 0.101796 -0.101047 0.116058 
0.422936 0.19358 0.881935 0.076436 
0.94416 0.135058 -0.288059 0.085692 
0.933896 0.135683 0.0158348 0.330419 
0.218235 0.323535 0.831742 0.394847 
0.708235 0.0748579 0.662718 0.231526 
0.259029 0.245797 0.696789 0.622072 
0.947128 0.0660144 0.273627 0.154011 
-0.104365 0.881937 0.370944 0.271471 
0.117446 0.682319 0.57619 0.434342 
0.921496 0.181323 0.0917809 0.330973 
0.895604 0.01201 0.325206 0.3033 
0.115508 0.577388 0.641376 0.491851 
0.644979 0.633387 0.42288 0.0632032 
0.836422 0.429133 0.114919 0.320992 
0.990751 0.0575304 -0.11257 0.0493069 
0.746141 0.197399 0.0134558 0.635709 
0.973041 0.107819 0.0267017 0.202121 
0.899946 0.271274 0.113501 0.32191 
0.872998 0.106465 0.203002 0.430499 
1 0.000646178 0.000193913 0.000461524 
0.464545 0.197074 0.639242 0.580284 
0.80546 0.16019 0.208233 0.531236 
0.973067 0.0554567 0.156413 0.16 
0.692833 0.65394 0.303861 -0.00350662 
0.952281 0.217798 -0.188066 0.101769 
0.422936 0.19358 0.881935 0.076436 
0.974035 0.214768 -0.0714259 0.00541385 
0.933896 0.135683 0.0158348 0.330419 
0.218235 0.323535 0.831742 0.394847 
0.82676 -0.00701621 0.477038 0.298083 
0.259029 0.245797 0.696789 0.622072 
0.947128 0.0660144 0.273627 0.154011 
-0.00240498 0.813584 0.382774 0.437675 
0.254606 0.347254 0.213539 0.876922 
0.851764 0.383099 0.216601 0.284285 
0.895604 0.01201 0.325206 0.3033 
0.115508 0.577388 0.641376 0.491851 
0.823288 0.30295 0.473277 -0.0801643 
0.83683 0.289319 -0.0888193 0.456202 
0.912547 0.206757 -0.34894 0.0524477 
0.607213 0.443867 -0.137834 0.644419 
0.971137 0.0477637 -0.0594298 0.226007 
0.825035 0.445321 0.128764 0.32315 
0.872998 0.106465 0.203002 0.430499 
1 0.000646178 0.000193913 0.000461524 
0.464545 0.197074 0.639242 0.580284 
0.80546 0.16019 0.208233 0.531236 
0.973067 0.0554567 0.156413 0.16 
0.891662 0.387274 0.234427 0.00125642 
0.987695 0.113077 0.0865597 0.064658 
0.422936 0.19358 0.881935 0.076436 
0.999938 0.00834925 0.00519597 0.00514693 
0.933896 0.135683 0.0158348 0.330419 
0.218235 0.323535 0.831742 0.394847 
0.822268 0.00687642 0.488428 0.292003 
0.259029 0.245797 0.696789 0.622072 
0.947128 0.0660144 0.273627 0.154011 
0.114949 0.809678 0.432343 0.379853 
0.241786 0.448885 0.409847 0.756351 
0.905746 0.212262 0.303599 0.205902 
0.895604 0.01201 0.325206 0.3033 
0.115508 0.577388 0.641376 0.491851 
0.833723 0.485754 0.257048 0.0536289 
0.824488 0.388943 0.180706 0.369174 
0.997984 0.0571643 0.0186911 0.0202818 
0.733928 0.293165 0.134605 0.597734 
0.94956 0.0531351 0.230499 0.205872 
0.894099 0.242412 0.307197 0.217838 
0.872998 0.106465 0.203002 0.430499 
1 0.000646178 0.000193913 0.000461524 
0.464545 0.197074 0.639242 0.580284 
0.80546 0.16019 0.208233 0.531236 
0.973067 0.0554567 0.156413 0.16 
0.85666 0.475253 0.200024 0.0160836 
0.987695 0.113077 0.0865597 0.064658 
0.422936 0.19358 0.881935 0.076436 
0.999938 0.00834925 0.00519597 0.00514693 
0.933896 0.135683 0.0158348 0.330419 
0.218235 0.323535 0.831742 0.394847 
0.822268 0.00687642 0.488428 0.292003 
0.259029 0.245797 0.696789 0.622072 
0.947128 0.0660144 0.273627 0.154011 
0.114949 0.809678 0.432343 0.379853 
0.241786 0.448885 0.409847 0.756351 
0.907485 0.19221 0.316201 0.198854 
0.895604 0.01201 0.325206 0.3033 
0.115508 0.577388 0.641376 0.491851 
0.835101 0.483927 0.255872 0.054317 
0.824488 0.388943 0.180706 0.369174 
0.997984 0.0571643 0.0186911 0.0202818 
0.733928 0.293165 0.134605 0.597734 
0.94956 0.0531351 0.230499 0.205872 
0.894099 0.242412 0.307197 0.217838 
0.872998 0.106465 0.203002 0.430499 
1 0.000646178 0.000193913 0.000461524 
0.464545 0.197074 0.639242 0.580284 
0.80546 0.16019 0.208233 0.531236 
0.973067 0.0554567 0.156413 0.16 
0.85666 0.475253 0.200024 0.0160836 
VECTORS vel double
0.00148697 0.00132485 0.000907979 
0 0 0.00182198 
0.0109029 0.00974336 0.00225456 
0 0 0.00180232 
0 0 0.00180413 
-0.0665049 -0.0451662 -0.0251883 
0 0 0.00182075 
0 0 0.0018323 
0.00549239 0.0464595 0.0055563 
0.00689655 -0.00283112 -0.00159352 
0.0557958 0.0421289 -0.00168133 
0 0 0.00184601 
0 0 0.00177848 
-0.0360428 0.121326 0.00790828 
0.0047984 0.000284752 0.00520766 
0.000486234 0.0123278 -0.00496174 
0.000209127 -0.00096834 0.00115135 
-0.0180938 0.0193785 -0.0259604 
0.0244951 -0.0599982 -0.00567538 
0 0 0.00180112 
0 0 0.00182507 
0 0 0.00174144 
0 0 0.0018084 
0 0 0.00175824 
0.0878063 -0.047927 0.0183968 
0.00860319 0.00272674 0.00138855 
0 0 0.00365873 
0.0336854 0.0248377 0.0020305 
0 0 0.00362044 
0 0 0.0036254 
-0.15786 -0.060409 -0.0480458 
0 0 0.00365465 
0 0 0.00367819 
-0.295028 -0.0463028 -0.457219 
-0.0285773 0.144777 0.0105432 
0.0129594 -0.00279289 -0.101889 
0 0 0.00370292 
0 0 0.00357123 
-0.00647117 0.273829 -0.172217 
0.212754 -0.108089 -0.111598 
-0.00250224 0.0301752 -0.0127719 
0.0161077 0.0023139 0.00280057 
-0.0316904 0.0637423 -0.0186858 
0.141001 -0.311402 -0.266738 
0 0 0.00361804 
0 0 0.00366274 
0 0 0.00349725 
0 0 0.00362905 
0 0 0.00352909 
0.0834056 -0.196867 -0.395198 
0.0174888 -0.0160756 -0.000694164 
0 0 0.00539782 
0.0579249 0.0235149 -0.00439034 
0 0 0.00534135 
0 0 0.00534784 
0.0815193 -0.0194517 -0.414333 
0 0 0.00538949 
0 0 0.00542711 
-0.0111358 0.018196 -0.187241 
-0.0053738 0.115504 -0.0702639 
0.0382039 -0.00499679 -0.159022 
0 0 0.00546149 
0 0 0.00526477 
-0.0298797 0.168748 -0.0835563 
0.350196 -0.149035 -0.174701 
-0.0160618 0.0283529 -0.0222796 
-0.000866167 0.0870266 -0.0166323 
-0.0145226 0.0356141 0.00307076 
0.24897 -0.339789 -0.472419 
0 0 0.00533584 
0 0 0.0054025 
0 0 0.00515588 
0 0 0.00535183 
0 0 0.00520314 
0.000410999 -0.313134 -0.189208 
0.0147945 -0.0279618 -0.00290542 
0 0 0.00697817 
0.0914498 -0.040534 0.00499086 
0 0 0.00690395 
0 0 0.00690939 
0.0200584 0.0139334 -0.0291449 
0 0 0.0069642 
0 0 0.00701845 
0.198486 -0.0270953 -0.556909 
-0.0204489 0.102504 -0.0985344 
0.121058 -0.0217608 -0.19639 
0 0 0.00706131 
0 0 0.00679779 
-0.00399662 -0.17301 -0.314393 
0.110478 0.0454286 -0.458357 
0.000286016 -0.0139137 -0.00622974 
-0.0153545 0.0183263 -0.0217629 
0.036589 0.0172299 -0.0295923 
0.0121814 -0.0538353 -0.814588 
0 0 0.00689278 
0 0 0.00698373 
0 0 0.00665695 
0 0 0.00691632 
0 0 0.00672047 
0.019301 -0.166745 -0.273368 
-0.00718905 -0.0329147 -0.0140297 
0 0 0.00833521 
0.0260988 -0.0174643 -0.0684423 
0 0 0.00824405 
0 0 0.00824572 
0.073 0.0166317 -0.505548 
0 0 0.00831464 
0 0 0.0083876 
-0.0427822 -0.00877778 -1.05396 
-0.128173 -0.030724 -0.141301 
0.0443027 0.0324413 -0.270334 
0 0 0.00843807 
0 0 0.00810739 
-0.00975754 0.01046 -0.302522 
-0.111136 0.10255 -0.499136 
0.0646036 -0.0592825 0.0123565 
0.0285355 -0.151562 -0.00767964 
0.014041 0.00875456 -0.0547641 
-0.07155 0.0279947 -0.782119 
0 0 0.00822478 
0 0 0.00834228 
0 0 0.00793838 
0 0 0.00825896 
0 0 0.00801883 
-0.00730092 0.127952 -0.178835 
0.0454223 -0.0152801 0.0696059 
0 0 0.00940827 
-0.0629923 0.0657969 -0.0236585 
0 0 0.00930207 
0 0 0.00929827 
-0.240706 -0.0319071 -0.733956 
0 0 0.00938104 
0 0 0.00947271 
-0.0371179 0.0642715 -0.948647 
0.0759416 0.042103 -0.0517983 
-0.0592308 -0.0238446 -0.345923 
0 0 0.00952984 
0 0 0.009137 
0.0133953 0.0203364 -0.585702 
0.0820633 -0.00700246 -0.494903 
0.146185 0.0410133 0.018671 
-0.0131281 0.0127165 -0.0315337 
0.0175822 0.0439591 0.0518873 
0.113875 0.191266 -0.788741 
0 0 0.00927357 
0 0 0.0094174 
0 0 0.00894482 
0 0 0.00932011 
0 0 0.00904137 
-0.0753823 0.0746131 -0.481579 
-0.138648 0.00342391 -0.113263 
0 0 0.0101493 
-0.0483132 -0.029446 -0.0433736 
0 0 0.0100316 
0 0 0.0100225 
0.0950075 0.0273821 -0.659321 
0 0 0.0101166 
0 0 0.0102237 
0.0106711 -0.0184623 -0.957091 
-0.0191237 -0.0452126 -0.310921 
0.0242537 0.0826452 -0.320892 
0 0 0.0102859 
0 0 0.0098443 
-0.0661435 -0.0280992 -0.786302 
-0.0534687 -0.0368125 -0.740236 
-0.152448 -0.0100468 0.0930904 
-0.0248238 -0.061239 -0.046199 
-0.188843 -0.0479135 -0.076187 
-0.0700803 -0.0920813 -0.811292 
0 0 0.009995 
0 0 0.0101604 
0 0 0.00963548 
0 0 0.0100526 
0 0 0.00974486 
0.0366446 -0.0659903 -0.659779 
0 0 -2.5398 
0 0 0.0105271 
0 0 -2.5398 
0 0 0.0104033 
0 0 0.0103909 
0 0 -2.5398 
0 0 0.0104913 
0 0 0.0106071 
0 0 -2.5398 
0 0 -2.5398 
-0.0330242 -0.0376425 -0.421895 
0 0 0.0106722 
0 0 0.0102036 
0.0381145 0.0345611 -0.840587 
0 0 -2.5398 
0 0 -2.5398 
0 0 -2.5398 
0 0 -2.5398 
0 0 -2.5398 
0 0 0.0103619 
0 0 0.0105395 
0 0 0.0099861 
0 0 0.010426 
0 0 0.0101026 
0 0 -2.5398 
0 0 -2.0493 
0 0 -2.0493 
0 0 -2.0493 
0 0 -2.0493 
0 0 -2.0493 
0 0 -2.0493 
0 0 -2.0493 
0 0 -2.0493 
0 0 -2.0493 
0 0 -2.0493 
0 0 -2.0493 
0 0 -2.0493 
0 0 -2.0493 
0 0 -2.0493 
0 0 -2.0493 
0 0 -2.0493 
0 0 -2.0493 
0 0 -2.0493 
0 0 -2.0493 
0 0 -2.0493 
0 0 -2.0493 
0 0 -2.0493 
0 0 -2.0493 
0 0 -2.0493 
0 0 -2.0493 
VECTORS spin double
-0.0681341 0.0165688 0.0403263 
0 0 0 
-0.285611 0.29712 0.0399083 
0 0 0 
0 0 0 
1.05282 -1.07575 -0.852383 
0 0 0 
0 0 0 
-1.35111 0.205815 -0.36648 
0.0726249 0.195607 -0.0335697 
-0.8596 1.08985 -0.419024 
0 0 0 
0 0 0 
-2.38552 -0.731632 -0.714289 
-0.0170966 0.0184545 -0.0579419 
-0.34522 0.0182383 0.0418445 
0.0225747 -0.0384288 -0.0118132 
-0.788347 -0.478916 0.227738 
1.67401 0.661321 0.229488 
0 0 0 
0 0 0 
0 0 0 
0 0 0 
0 0 0 
0.677478 1.98372 1.89334 
0.0143564 0.190934 0.218235 
0 0 0 
-0.237134 0.259654 0.298389 
0 0 0 
0 0 0 
1.43061 -1.8087 -2.79626 
0 0 0 
0 0 0 
1.69106 -6.45261 0.127805 
-3.25198 -0.842439 2.59652 
0.00865046 -1.98688 3.3355 
0 0 0 
0 0 0 
-3.16458 0.201663 0.259558 
1.6484 4.46182 -1.11697 
-0.139499 -0.0653416 0.11042 
-0.158179 0.514792 -0.161479 
-0.648877 -0.147707 1.13179 
5.17133 4.08977 -1.95342 
0 0 0 
0 0 0 
0 0 0 
0 0 0 
0 0 0 
6.57371 -0.881855 -4.04187 
0.664549 0.0339269 -0.0253965 
0 0 0 
0.505679 0.442746 0.295913 
0 0 0 
0 0 0 
-0.678272 11.5208 1.48783 
0 0 0 
0 0 0 
-2.58898 6.22653 0.747934 
-0.0413614 1.72622 -0.0810464 
0.334613 1.31564 -0.332967 
0 0 0 
0 0 0 
4.55295 0.0183574 3.01219 
-1.68763 -2.06695 0.419769 
0.0288288 -0.289718 0.330859 
-2.24947 -1.38753 1.03515 
1.75629 0.829081 0.48824 
-4.8654 0.198244 -0.83242 
0 0 0 
0 0 0 
0 0 0 
0 0 0 
0 0 0 
-4.01936 -2.26591 0.644668 
-0.242992 -0.138228 -0.581099 
0 0 0 
1.45499 0.312498 -0.196342 
0 0 0 
0 0 0 
-3.26347 3.59214 -2.94995 
0 0 0 
0 0 0 
4.67092 0.333425 -0.215753 
0.223785 -2.67389 -1.2404 
-0.0268217 0.710501 -0.152054 
0 0 0 
0 0 0 
6.15602 0.230171 0.378586 
-5.69013 -4.71621 1.11736 
1.23429 0.653815 -0.13605 
3.51497 0.654906 0.706313 
-0.678579 0.150084 -0.324127 
-3.33541 -7.11483 -0.225453 
0 0 0 
0 0 0 
0 0 0 
0 0 0 
0 0 0 
-0.15546 1.41762 0.307239 
0.0115803 -0.664755 0.321851 
0 0 0 
-2.53628 -2.52572 -0.952619 
0 0 0 
0 0 0 
0.336294 -14.4339 0.642273 
0 0 0 
0 0 0 
0.736407 0.0121342 0.740833 
3.3698 -0.351459 1.01617 
-1.33749 -2.36782 -0.141048 
0 0 0 
0 0 0 
-8.42379 -0.780752 -0.0381306 
1.91195 -0.789036 2.39858 
0.489209 1.53507 -1.18379 
-1.23109 0.611128 -0.381253 
0.851017 -0.895175 -0.0214727 
0.643682 3.57669 0.685402 
0 0 0 
0 0 0 
0 0 0 
0 0 0 
0 0 0 
-9.42276 -3.70871 0.112094 
-0.893975 2.44687 0.758979 
0 0 0 
-0.65484 1.27519 2.16071 
0 0 0 
0 0 0 
-0.776862 6.73885 -2.04184 
0 0 0 
0 0 0 
-2.82539 0.166348 -1.16481 
-4.53255 4.89033 -0.600828 
3.01312 -0.0052493 -0.486325 
0 0 0 
0 0 0 
9.50832 1.91249 -0.852987 
0.255991 7.51767 -1.09897 
-4.03408 -0.169148 -0.27654 
-2.64658 -2.43389 -1.19903 
-1.23375 1.53481 -0.851875 
-4.41459 1.29189 0.583414 
0 0 0 
0 0 0 
0 0 0 
0 0 0 
0 0 0 
9.10492 1.83318 -0.350801 
1.5522 -8.60661 -0.871116 
0 0 0 
4.59774 -1.87295 -0.167282 
0 0 0 
0 0 0 
-0.0682466 -1.27997 0.511435 
0 0 0 
0 0 0 
5.12797 -0.158155 0.326259 
6.88536 -6.89715 -1.14952 
-3.90055 1.59272 1.20128 
0 0 0 
0 0 0 
-6.23485 -3.74541 2.02255 
1.17399 -8.73017 -0.914379 
4.58422 -6.77397 1.36115 
5.57105 2.69321 2.98846 
3.50154 -7.93287 0.641221 
7.8625 -3.90416 0.208328 
0 0 0 
0 0 0 
0 0 0 
0 0 0 
0 0 0 
-5.21779 0.607984 1.23719 
0 0 0 
0 0 0 
0 0 0 
0 0 0 
0 0 0 
0 0 0 
0 0 0 
0 0 0 
0 0 0 
0 0 0 
5.93905 -1.63618 -0.375883 
0 0 0 
0 0 0 
5.27684 5.62719 -0.978119 
0 0 0 
0 0 0 
0 0 0 
0 0 0 
0 0 0 
0 0 0 
0 0 0 
0 0 0 
0 0 0 
0 0 0 
0 0 0 
0 0 0 
0 0 0 
0 0 0 
0 0 0 
0 0 0 
0 0 0 
0 0 0 
0 0 0 
0 0 0 
0 0 0 
0 0 0 
0 0 0 
0 0 0 
0 0 0 
0 0 0 
0 0 0 
0 0 0 
0 0 0 
0 0 0 
0 0 0 
0 0 0 
0 0 0 
0 0 0 
0 0 0 
0 0 0 
VECTORS force double
-1.56004 2.71633 -0.816485 
0 0 0.337101 
0.799173 1.04216 -0.673512 
0 0 0.341285 
0 0 0.353203 
1.0748 -2.73894 -2.40688 
0 0 0.330733 
0 0 0.3286 
3.11453 -1.25553 -0.611845 
1.80354 0.327903 -0.436948 
43.6647 26.665 33.4 
0 0 0.315636 
0 0 0.334642 
-8.33594 4.45392 1.86326 
4.3043 -0.397902 0.343144 
-0.889491 0.630225 -5.84628 
0.317542 -2.57195 0.825493 
-8.75934 13.1734 -7.39739 
0.181494 -2.09725 0.135173 
0 0 0.346421 
0 0 0.324334 
0 0 0.329046 
0 0 0.320984 
0 0 0.318046 
-1.81366 -0.543347 -1.62777 
-0.393681 -0.522806 0.104379 
0 0 0.68808 
1.54543 2.25777 -0.856853 
0 0 0.698622 
0 0 0.722476 
-0.0899808 -1.03373 -6.88969 
0 0 0.67552 
0 0 0.669018 
0 0 -13.6117 
-9.50033 -0.0132859 0.884687 
-61.8227 3.4357 74.8126 
0 0 0.63969 
0 0 0.684352 
-4.65043 2.20771 -0.797452 
10.1334 0.342311 -7.26194 
-1.05125 -1.54353 -5.63969 
10.3318 9.82947 -3.32392 
4.8787 10.4782 -10.9471 
0.694005 -3.03987 -7.14685 
0 0 0.710769 
0 0 0.660403 
0 0 0.679126 
0 0 0.654552 
0 0 0.653423 
0 0 -13.6117 
2.39378 -3.79035 -3.7312 
0 0 1.02035 
0.992289 -1.45773 -5.06151 
0 0 1.03823 
0 0 1.07148 
0 0 -13.6117 
0 0 1.00581 
0 0 0.98947 
-40.2576 36.7362 -138.944 
-4.25532 0.0646629 -0.867269 
1.92968 0.420655 41.2793 
0 0 0.943643 
0 0 1.01677 
-3.15289 3.08582 -5.04785 
4.50591 -1.26042 -10.1774 
0.752243 -3.83817 -4.16737 
-2.23463 1.64483 -36.6946 
12.8678 -5.71263 36.6728 
0 0 -13.6117 
0 0 1.0616 
0 0 0.978343 
0 0 1.02154 
0 0 0.971687 
0 0 0.978456 
0 0 -13.6117 
-1.71827 1.02195 -5.98347 
0 0 1.34789 
0.174273 -2.09877 -2.99742 
0 0 1.37463 
0 0 1.41487 
-25.0408 -2.52411 5.27831 
0 0 1.3363 
0 0 1.30311 
40.2576 -36.7362 111.721 
0 0 -13.6117 
13.1302 -10.8056 25.9048 
0 0 1.24009 
0 0 1.34695 
0 0 -13.6117 
0.547619 -0.220808 -11.1633 
2.51264 -2.51959 5.52683 
-7.31658 -4.38304 16.0149 
-0.141557 -1.30856 17.4184 
0 0 -13.6117 
0 0 1.41454 
0 0 1.29174 
0 0 1.37272 
0 0 1.28642 
0 0 1.30861 
5.99157 -0.556601 -30.186 