# vtk DataFile Version 2.0
Generated by NetDEM
ASCII 
DATASET POLYDATA
POINTS 500 double
-0.419041 -0.408327 -0.464133 
-0.449979 -0.193723 -0.450032 
-0.405294 -0.0128581 -0.460377 
-0.450041 0.108778 -0.450056 
-0.438098 0.350183 -0.450037 
-0.271139 -0.429831 -0.459085 
-0.303209 -0.222669 -0.450098 
-0.190651 -0.0109499 -0.450055 
-0.172307 0.173933 -0.46393 
-0.255067 0.367031 -0.46361 
-0.0553055 -0.397078 -0.461204 
-0.146525 -0.134363 -0.450007 
-0.0547743 -0.0942979 -0.450033 
0.0383701 0.180308 -0.452944 
-0.0294915 0.318683 -0.44331 
0.193273 -0.401448 -0.46298 
0.169702 -0.210102 -0.46333 
0.17258 -0.00457332 -0.46273 
0.161535 0.206832 -0.465056 
0.297584 0.403326 -0.418851 
0.450005 -0.410178 -0.45003 
0.432764 -0.299112 -0.450015 
0.339771 -0.0117749 -0.450011 
0.376604 0.0872938 -0.450007 
0.372222 0.440303 -0.464925 
-0.431185 -0.411137 -0.394112 
-0.450001 -0.271864 -0.387648 
-0.407375 -0.0169214 -0.389131 
-0.445803 0.176474 -0.376539 
-0.450029 0.449483 -0.45005 
-0.336941 -0.406848 -0.40776 
-0.242875 -0.146829 -0.425463 
-0.157837 -0.100658 -0.213305 
-0.304796 0.164831 -0.464994 
-0.151381 0.40505 -0.452363 
-0.0890114 -0.390504 -0.397317 
0.309353 -0.247286 -0.136126 
-0.0443777 -0.0170353 -0.311117 
0.0298371 0.25953 -0.451029 
0.123238 0.302277 -0.431956 
0.202182 -0.414 -0.390552 
0.167081 -0.206335 -0.390248 
0.17517 0.0171429 -0.386276 
0.19725 0.113236 -0.45557 
0.286041 0.368158 -0.325962 
0.380776 -0.450007 -0.389882 
0.435648 -0.355544 -0.367521 
0.275736 -0.211207 -0.450013 
0.450004 0.141251 -0.40837 
0.425722 0.341495 -0.456356 
-0.436154 -0.440925 -0.326134 
-0.320786 -0.210287 -0.352523 
-0.307852 -0.0157786 -0.389531 
-0.288832 0.27128 -0.450012 
-0.450022 0.276134 -0.383902 
-0.182575 -0.371771 -0.451757 
0.184578 -0.336805 -0.302646 
-0.239394 -0.0542864 -0.178701 
-0.173616 0.0779285 -0.45054 
-0.350855 0.33219 -0.337778 
0.0445022 -0.438801 -0.449836 
0.205958 -0.284721 -0.159983 
0.205704 0.0608001 -0.211367 
-0.0400399 0.222877 -0.394313 
0.255105 0.331675 -0.463795 
0.195091 -0.434931 -0.319377 
0.0525892 -0.0970167 -0.4507 
0.161168 0.0620758 -0.332175 
0.270543 0.064705 -0.441954 
0.11275 0.138134 -0.397486 
0.290789 -0.448076 -0.450007 
0.377065 -0.215389 -0.450088 
0.379017 -0.109856 -0.450044 
0.449973 0.231443 -0.365196 
0.437641 0.257023 -0.459887 
-0.433434 -0.45288 -0.243487 
-0.175472 -0.160815 -0.35294 
-0.237499 -0.00408994 -0.352968 
-0.268344 0.0885832 -0.405261 
-0.353329 0.143398 -0.352207 
-0.162286 -0.449143 -0.39533 
-0.125557 -0.0572034 -0.389914 
-0.239949 0.0477129 -0.226296 
-0.0549595 0.129015 -0.445512 
-0.356158 0.381289 -0.407489 
0.0895283 -0.451157 -0.355257 
0.447335 -0.335922 -0.0831491 
-0.188293 -0.238499 -0.450008 
0.0167893 0.0476048 -0.450318 
0.0674985 0.398277 -0.410973 
0.259868 -0.445903 -0.245622 
0.152856 -0.318603 -0.400356 
0.11961 0.0689084 -0.271996 
0.265186 0.174847 -0.443641 
0.142897 0.450021 -0.450013 
0.347273 -0.308851 -0.364432 
0.449992 -0.105824 -0.37978 
0.386562 0.157171 -0.332507 
0.331151 0.309377 -0.411997 
0.437465 0.371707 -0.376964 
-0.386318 -0.439615 -0.170203 
-0.368081 -0.35986 -0.121035 
-0.294699 -0.0400165 -0.2761 
-0.365495 0.0675593 -0.416149 
-0.447908 0.428825 -0.35218 
-0.269796 -0.440155 -0.362927 
-0.0626568 -0.159934 -0.375015 
-0.248174 0.0393723 -0.127008 
-0.00276323 -0.0244489 -0.397726 
-0.423743 0.242761 -0.46393 
0.0829805 -0.342188 -0.44076 
0.355098 -0.211645 -0.0546571 
0.0388534 -0.120007 -0.35213 
0.026398 0.0417914 -0.355207 
-0.00312419 0.435903 -0.46411 
0.30171 -0.385835 -0.218077 
0.259666 -0.315231 -0.424094 
0.0375478 0.0686991 -0.262454 
0.248731 0.243241 -0.381433 
0.348502 0.449981 -0.272655 
0.321326 -0.401276 -0.325928 
0.450077 -0.20867 -0.382238 
0.45 -0.0300134 -0.450007 
0.341711 0.210225 -0.404441 
0.398904 0.452834 -0.374146 
-0.462174 -0.451979 -0.127074 
-0.321029 -0.139221 -0.282161 
-0.451284 -0.0293015 -0.321567 
-0.252689 0.191062 -0.394483 
-0.304758 0.450007 -0.363361 
-0.165675 -0.37432 -0.340394 
-0.0846758 -0.222294 -0.450012 
-0.19541 -0.162212 -0.144024 
-0.134134 0.149028 -0.397368 
-0.228207 0.334268 -0.394285 
-0.0912065 -0.31006 -0.451257 
0.286375 -0.3202 -0.0716655 
0.449984 0.0526128 -0.161797 
0.0432381 0.121103 -0.332219 
-0.115984 0.313001 -0.40865 
0.158233 -0.436741 -0.238608 
0.240123 -0.140384 -0.39431 
0.10889 -0.0225332 -0.223902 
0.195745 0.307134 -0.33976 
0.200435 0.38582 -0.39736 
0.449905 -0.441325 -0.318156 
0.333117 -0.172962 -0.370885 
0.250942 -0.0598024 -0.450028 
0.44832 0.0502694 -0.366872 
0.440807 0.409109 -0.300192 
-0.438493 -0.457901 -0.012085 
-0.227685 -0.172326 -0.268431 
-0.423264 -0.11207 -0.406875 
-0.206908 0.271014 -0.334144 
-0.337519 0.24094 -0.368109 
-0.141551 -0.291399 -0.370853 
0.12958 -0.449974 -0.0936121 
-0.304686 0.365786 -0.185175 
-0.105479 0.275114 -0.328326 
-0.223582 0.459563 -0.451061 
-0.00157668 -0.339212 -0.363733 
0.116418 -0.240635 -0.153005 
-0.178611 -0.0699691 -0.30614 
0.0174901 0.201222 -0.30411 
0.0124359 0.294425 -0.350054 
0.0752843 -0.410121 -0.273768 
0.136976 -0.0976788 -0.400042 
0.25666 -0.117431 -0.265907 
0.23319 0.185089 -0.326004 
0.138513 0.448529 -0.350111 
0.386618 -0.229228 -0.307874 
0.344122 -0.0669605 -0.366736 
0.320431 0.0552587 -0.372044 
0.403903 0.30168 -0.31072 
0.446949 0.377866 -0.215189 
-0.327203 -0.44686 -0.0886497 
-0.449118 -0.098981 -0.266766 
-0.35879 0.0110452 -0.246351 
-0.44936 0.0692675 -0.358204 
-0.416838 0.262882 -0.290561 
-0.265934 -0.310515 -0.446303 
-0.181077 -0.275828 -0.253044 
-0.143109 0.400064 -0.0805786 
-0.124806 0.189853 -0.334302 
-0.138948 0.441787 -0.353038 
0.00355922 -0.434768 -0.355994 
0.0158363 -0.0955535 -0.257951 
0.0156503 -0.224749 -0.450007 
-0.0260332 0.270826 -0.249224 
-0.00539565 0.409951 -0.369996 
0.0728214 -0.425758 -0.172131 
0.0984627 -0.040789 -0.331757 
0.28562 -0.160777 -0.189035 
0.202381 0.136088 -0.271485 
0.248955 0.450033 -0.282043 
0.45 -0.30941 -0.27997 
0.450018 -0.148668 -0.289446 
0.364855 0.0389035 -0.284007 
0.318441 0.249832 -0.308215 
0.382998 0.427366 -0.196919 
-0.246271 -0.444278 -0.161618 
-0.44292 0.230654 -0.199489 
-0.292607 0.188563 -0.186396 
-0.189582 0.0765968 -0.342745 
-0.372582 0.449817 -0.28989 
-0.227572 -0.348987 -0.24367 
-0.0437544 -0.260051 -0.311827 
0.0160975 -0.242498 -0.233669 
-0.157082 0.11676 -0.254921 
-0.167026 0.350572 -0.3292 
-0.0450607 -0.385338 -0.292128 
-0.186157 -0.0951387 0.180271 
-0.0286963 0.205564 -0.168205 
-0.0535866 0.106702 -0.329248 
0.103914 0.356838 -0.332404 
0.263168 -0.438002 -0.142042 
0.219829 -0.196833 -0.311708 
0.292438 -0.106728 -0.123933 
0.150321 0.226166 -0.29118 
0.19519 0.363152 -0.263028 
0.408123 -0.391961 -0.241889 
0.443635 -0.225562 -0.225755 
0.434496 -0.0329234 -0.313122 
0.303444 0.117218 -0.293817 
0.408777 0.40333 -0.124344 
-0.255556 -0.333145 -0.152226 
-0.41708 -0.334647 -0.317128 
-0.431312 0.333915 -0.135136 
-0.342252 0.324316 -0.0656788 
-0.448959 0.424469 -0.0104731 
-0.141808 -0.418718 -0.25526 
-0.0514928 0.137193 -0.0671032 
-0.259516 -0.175603 -0.0262019 
-0.182712 0.175938 -0.18595 
-0.159313 0.338807 -0.221301 
-0.0635452 -0.383967 -0.206606 
-0.138619 -0.141323 -0.0182001 
-0.111492 -0.0241246 -0.168631 
-0.00604139 0.11001 -0.197187 
0.0260736 0.447178 -0.278373 
0.29805 -0.328444 -0.171943 
0.248964 -0.29192 -0.341882 
0.350124 -0.0524631 -0.0727807 
0.153434 0.273627 -0.222087 
0.208059 0.40595 -0.13818 
0.358134 -0.450005 -0.171787 
0.450015 -0.199548 -0.0836671 
0.33713 0.129531 -0.00834685 
0.449997 0.152182 -0.177549 
0.425413 0.386777 -0.0439063 
-0.29708 -0.320985 -0.347448 
-0.11945 -0.20231 -0.281264 
-0.326074 -0.0169969 -0.146471 
-0.22022 0.201906 -0.263116 
-0.421542 0.44494 -0.20286 
-0.249564 -0.429891 -0.271072 
0.0944317 -0.281113 -0.307409 
-0.308109 0.256879 -0.131806 
-0.247386 0.300134 -0.209213 
-0.149565 0.442303 -0.244171 
0.0148322 -0.380714 -0.163578 
0.450024 -0.390124 0.000804851 
0.0767768 0.437346 -0.187889 
-0.0744045 0.406372 -0.32248 
-0.0391711 0.447767 -0.219126 
0.355191 -0.395733 -0.0913575 
0.372207 -0.0987549 -0.172 
0.192671 -0.0252621 -0.290034 
0.220034 0.200183 -0.203242 
0.0888284 0.24106 -0.366968 
0.355101 -0.303549 -0.248711 
0.349193 -0.150971 -0.258113 
0.450019 0.0836656 -0.25683 
0.449193 0.214526 -0.266649 
0.407743 0.451203 -0.0185382 
-0.338422 -0.393669 0.012408 
-0.138624 -0.345443 -0.148746 
-0.434429 -0.11167 -0.182625 
-0.450012 0.094854 -0.174251 
-0.345083 0.196956 -0.268156 
-0.145681 -0.443846 -0.170832 
-0.0652244 -0.285869 -0.184245 
-0.228083 0.45 -0.299183 
-0.28292 0.309965 -0.282564 
-0.221303 0.435757 -0.173736 
0.0405416 -0.406644 -0.0785213 
-0.115444 0.450002 0.121294 
0.0336243 0.182566 -0.0934663 
-0.072359 0.306919 -0.197897 
0.00675521 0.36678 -0.190018 
0.271354 -0.415832 -0.0323606 
0.0286576 -0.0920894 -0.0111376 
0.145269 -0.0387517 -0.139597 
0.28779 0.173266 -0.14688 
0.0672856 0.256442 -0.157033 
0.402474 -0.282642 -0.154817 
0.449995 -0.144705 -0.167261 
0.330046 -0.0531979 -0.266611 
0.450002 0.278101 -0.189473 
0.301137 0.414502 -0.0833644 
-0.290688 -0.353497 -0.0611517 
-0.420426 -1.11493e-05 -0.185345 
-0.39396 -0.29444 -0.0680926 
-0.430433 0.136111 -0.286259 
-0.450004 0.449986 -0.107139 
-0.158129 -0.425017 -0.0708608 
-0.135105 -0.319012 -0.0523605 
-0.281522 0.091189 -0.306173 
-0.135295 0.279195 -0.106151 
-0.24985 0.381678 -0.0976207 
-0.0223563 -0.425625 -0.0158498 
-0.407508 -0.173655 -0.318863 
0.00981363 -0.00264118 -0.221382 
-0.0427584 0.28973 -0.0918761 
-0.00897445 0.44382 -0.13039 
0.151321 -0.388741 -0.0147253 
0.450639 0.00315243 0.0151943 
0.0755318 -0.0280942 -0.0734089 
0.30218 0.336901 -0.21213 
0.282817 0.450004 -0.187968 
0.37302 -0.449996 -0.0217188 
0.438193 -0.0490493 0.0880756 
0.246159 -0.0554549 -0.350257 
0.346915 0.254274 -0.195246 
0.438897 0.452101 0.0731531 
-0.350403 -0.214652 -0.00682455 
-0.389384 -0.272671 -0.165073 
-0.416679 0.10133 -0.0934667 
-0.388231 0.317946 -0.212177 
-0.449996 0.363157 -0.276804 
-0.173509 -0.43519 0.0489319 
-0.0588782 -0.150638 -0.220756 
-0.224672 0.291699 -0.0890422 
-0.101258 0.386821 -0.166954 
-0.0740392 0.439767 -0.0477012 
-0.0919832 -0.448415 0.0263908 
0.0807177 -0.166275 -0.229867 
-0.0698634 0.0659496 -0.134842 
0.0351629 0.249466 -0.0342187 
0.00796979 0.423425 -0.0579106 
0.137145 -0.339235 -0.105808 
0.178703 -0.18995 -0.226683 
0.125542 0.150558 -0.186502 
0.313663 0.221017 -0.0636694 
0.170674 0.44995 -0.219847 
0.450007 -0.416697 -0.150609 
0.319651 -0.266123 0.0213192 
0.410569 -0.0211115 -0.216749 
0.368664 0.164838 -0.234332 
0.417132 0.272522 0.170815 
-0.420233 -0.380585 0.0574941 
-0.449999 -0.21642 -0.239062 
-0.36555 0.218768 -0.0801022 
-0.44773 0.0623382 -0.00255837 
-0.450005 0.193775 -0.106821 
-0.225576 -0.379701 -0.000337235 
-0.277855 -0.10908 -0.098569 
-0.323684 -0.107441 -0.187416 
-0.19113 0.356313 0.00101569 
-0.133276 0.400357 0.0258241 
0.0396106 -0.187421 -0.127983 
-0.150727 -0.249386 -0.123743 
0.220546 0.133083 -0.0888991 
0.106572 0.318649 -0.0482019 
-0.0215481 0.439487 0.0335886 
0.0783313 -0.21565 -0.0198812 
0.453997 -0.0702354 -0.109846 
0.281708 0.0629886 -0.0265677 
0.189297 0.224522 -0.115877 
0.10318 0.33562 0.0771335 
0.398028 -0.0796983 0.00178 
0.449629 -0.26795 -0.00982298 
0.365112 0.0104449 -0.129927 
0.426718 0.112226 -0.0849656 
0.32559 0.317232 -0.115393 
-0.427837 -0.180387 -0.132554 
-0.450006 -0.238923 -0.0317179 
-0.397486 -0.00624679 -0.0905937 
-0.449999 0.282228 0.0564316 
-0.341739 0.448404 -0.142705 
-0.238477 -0.302862 0.0641738 
-0.273909 -0.274119 -0.0168779 
-0.325805 0.0643836 -0.0504251 
-0.118691 0.218852 -0.0416963 
-0.125178 0.192473 0.0313095 
0.0269713 -0.311744 -0.0140182 
-0.120075 -0.105413 -0.1109 
0.109766 0.113691 -0.0955475 
-0.15623 0.104593 -0.125051 
0.0419646 0.407973 0.113127 
0.0400149 -0.291459 -0.14423 
0.284217 -0.0740375 -0.013302 
0.266495 0.0235597 -0.0989561 
0.185567 0.282139 -0.0364578 
0.147707 0.327147 -0.152325 
0.327736 -0.342458 0.0854037 
0.257608 -0.179002 -0.0707419 
0.416678 0.188716 -0.0213441 
0.407979 0.236948 -0.108605 
0.4362 0.278166 -0.0178851 
-0.336109 -0.344665 0.0947884 
-0.33876 -0.227334 -0.238388 
-0.448201 -0.0610001 -0.0205294 
-0.44997 0.130935 0.0715617 
-0.279353 0.367047 -0.000722462 
-0.0632259 -0.181409 -0.133711 
-0.177785 -0.23318 -0.0238808 
-0.234589 -0.000211538 -0.0362016 
-0.285716 0.218787 -0.0113747 
-0.204371 0.412236 0.0910978 
0.208612 -0.0594116 -0.0970502 
0.000918355 -0.0811825 -0.160127 
-0.13677 -0.0327193 0.119745 
-0.0256892 0.244969 0.0378742 
-0.0722649 0.346776 0.0745557 
0.31508 -0.441166 0.0684932 
0.329883 -0.210713 0.106499 
0.176629 0.039165 -0.127056 
0.263958 0.287777 0.00962354 
0.239715 0.449999 -0.0113682 
0.448575 -0.165552 0.0103505 
0.316035 0.362041 -0.00421291 
0.450004 0.0883242 0.0093013 
0.432138 0.162456 0.0739808 
0.384019 0.366083 0.0666148 
-0.402092 -0.394043 0.145059 
-0.432041 -0.264787 0.0631871 
-0.19579 -0.0707351 -0.0722346 
-0.443439 0.270922 -0.0435377 
-0.387701 0.351222 0.0192287 
-0.209744 -0.392876 0.100774 
-0.253929 -0.00520487 0.118475 
-0.042316 -0.0145132 -0.0822416 
-0.276749 0.136075 -0.101271 
-0.28628 0.398979 0.160231 
0.188413 -0.43335 0.0597702 
0.118433 -0.135003 -0.133406 
0.0313282 0.0532774 -0.116858 
-0.0887682 0.108301 0.0713015 
-0.0414445 0.409223 0.159609 
0.309975 -0.414843 0.163499 
0.204524 -0.116148 -0.00126581 
0.0980111 0.191132 0.00342214 
0.267675 0.169979 0.145877 
0.155036 0.41845 -0.054329 
0.412998 -0.450019 0.0717776 
0.332707 -0.161285 0.0288454 
-0.213532 0.119421 -0.0229718 
0.362986 0.209729 0.128589 
0.317975 0.449096 0.060776 
-0.441723 -0.450452 0.177791 
-0.276499 0.0509913 0.0388451 
-0.394828 -3.31381e-05 0.0396081 
-0.41814 0.156308 -0.0197705 
-0.450007 0.41721 0.0892472 
-0.296017 -0.448086 0.069747 
-0.237619 -0.153672 0.0688662 
-0.172197 0.0321116 0.0349405 
-0.339698 0.125471 0.0423357 
-0.431189 0.4047 0.191631 
0.238597 -0.250094 0.12128 
-0.0462185 -0.144933 -0.0562575 
-0.0899866 0.062144 -0.0134286 
0.0227806 0.334276 0.0197363 
0.0126069 0.305808 0.11033 
0.191397 -0.246672 -0.0719021 
0.213619 -0.294789 0.0310872 
0.191132 -0.0120677 -0.021449 
0.191933 0.170547 0.00415554 
0.0798931 0.425717 0.0112425 
0.426493 -0.35401 0.0962476 
0.449994 -0.147326 0.108659 
0.345999 0.00702146 0.0210304 
0.271931 0.166899 0.0576113 
0.451168 0.353508 0.119078 
-0.312503 -0.310474 0.158502 
-0.202648 -0.0621036 0.0489491 
-0.438694 -0.00781529 0.144529 
-0.372373 0.220594 0.0416477 
-0.361819 0.449849 0.123259 
-0.176746 -0.24183 0.0746334 
-0.198356 -0.190594 0.153094 
-0.0873983 -0.0263489 0.0330324 
-0.309928 0.310066 0.0728319 
-0.218015 0.237811 0.0614507 
-0.0476938 -0.116604 0.0409404 
-0.0159574 -0.253607 -0.0738369 
0.0183626 0.00235354 -0.00457907 
0.235128 -0.157102 0.0718746 
0.0126106 0.448312 0.222235 
0.211978 -0.376551 0.134319 
0.445264 -0.295908 0.16381 
0.307713 0.0627993 0.0981765 
0.178311 0.247875 0.0651536 
0.18351 0.366279 0.0260836 
0.40652 -0.407885 0.178085 
0.448798 -0.202588 0.191995 
0.324425 -0.0722984 0.0798345 
0.399583 0.0917705 0.136776 
0.231409 0.424486 0.0996912 
VERTICES 500 1000
1 0
1 1
1 2
1 3
1 4
1 5
1 6
1 7
1 8
1 9
1 10
1 11
1 12
1 13
1 14
1 15
1 16
1 17
1 18
1 19
1 20
1 21
1 22
1 23
1 24
1 25
1 26
1 27
1 28
1 29
1 30
1 31
1 32
1 33
1 34
1 35
1 36
1 37
1 38
1 39
1 40
1 41
1 42
1 43
1 44
1 45
1 46
1 47
1 48
1 49
1 50
1 51
1 52
1 53
1 54
1 55
1 56
1 57
1 58
1 59
1 60
1 61
1 62
1 63
1 64
1 65
1 66
1 67
1 68
1 69
1 70
1 71
1 72
1 73
1 74
1 75
1 76
1 77
1 78
1 79
1 80
1 81
1 82
1 83
1 84
1 85
1 86
1 87
1 88
1 89
1 90
1 91
1 92
1 93
1 94
1 95
1 96
1 97
1 98
1 99
1 100
1 101
1 102
1 103
1 104
1 105
1 106
1 107
1 108
1 109
1 110
1 111
1 112
1 113
1 114
1 115
1 116
1 117
1 118
1 119
1 120
1 121
1 122
1 123
1 124
1 125
1 126
1 127
1 128
1 129
1 130
1 131
1 132
1 133
1 134
1 135
1 136
1 137
1 138
1 139
1 140
1 141
1 142
1 143
1 144
1 145
1 146
1 147
1 148
1 149
1 150
1 151
1 152
1 153
1 154
1 155
1 156
1 157
1 158
1 159
1 160
1 161
1 162
1 163
1 164
1 165
1 166
1 167
1 168
1 169
1 170
1 171
1 172
1 173
1 174
1 175
1 176
1 177
1 178
1 179
1 180
1 181
1 182
1 183
1 184
1 185
1 186
1 187
1 188
1 189
1 190
1 191
1 192
1 193
1 194
1 195
1 196
1 197
1 198
1 199
1 200
1 201
1 202
1 203
1 204
1 205
1 206
1 207
1 208
1 209
1 210
1 211
1 212
1 213
1 214
1 215
1 216
1 217
1 218
1 219
1 220
1 221
1 222
1 223
1 224
1 225
1 226
1 227
1 228
1 229
1 230
1 231
1 232
1 233
1 234
1 235
1 236
1 237
1 238
1 239
1 240
1 241
1 242
1 243
1 244
1 245
1 246
1 247
1 248
1 249
1 250
1 251
1 252
1 253
1 254
1 255
1 256
1 257
1 258
1 259
1 260
1 261
1 262
1 263
1 264
1 265
1 266
1 267
1 268
1 269
1 270
1 271
1 272
1 273
1 274
1 275
1 276
1 277
1 278
1 279
1 280
1 281
1 282
1 283
1 284
1 285
1 286
1 287
1 288
1 289
1 290
1 291
1 292
1 293
1 294
1 295
1 296
1 297
1 298
1 299
1 300
1 301
1 302
1 303
1 304
1 305
1 306
1 307
1 308
1 309
1 310
1 311
1 312
1 313
1 314
1 315
1 316
1 317
1 318
1 319
1 320
1 321
1 322
1 323
1 324
1 325
1 326
1 327
1 328
1 329
1 330
1 331
1 332
1 333
1 334
1 335
1 336
1 337
1 338
1 339
1 340
1 341
1 342
1 343
1 344
1 345
1 346
1 347
1 348
1 349
1 350
1 351
1 352
1 353
1 354
1 355
1 356
1 357
1 358
1 359
1 360
1 361
1 362
1 363
1 364
1 365
1 366
1 367
1 368
1 369
1 370
1 371
1 372
1 373
1 374
1 375
1 376
1 377
1 378
1 379
1 380
1 381
1 382
1 383
1 384
1 385
1 386
1 387
1 388
1 389
1 390
1 391
1 392
1 393
1 394
1 395
1 396
1 397
1 398
1 399
1 400
1 401
1 402
1 403
1 404
1 405
1 406
1 407
1 408
1 409
1 410
1 411
1 412
1 413
1 414
1 415
1 416
1 417
1 418
1 419
1 420
1 421
1 422
1 423
1 424
1 425
1 426
1 427
1 428
1 429
1 430
1 431
1 432
1 433
1 434
1 435
1 436
1 437
1 438
1 439
1 440
1 441
1 442
1 443
1 444
1 445
1 446
1 447
1 448
1 449
1 450
1 451
1 452
1 453
1 454
1 455
1 456
1 457
1 458
1 459
1 460
1 461
1 462
1 463
1 464
1 465
1 466
1 467
1 468
1 469
1 470
1 471
1 472
1 473
1 474
1 475
1 476
1 477
1 478
1 479
1 480
1 481
1 482
1 483
1 484
1 485
1 486
1 487
1 488
1 489
1 490
1 491
1 492
1 493
1 494
1 495
1 496
1 497
1 498
1 499
POINT_DATA 500
SCALARS id int 1
LOOKUP_TABLE default
0
1
2
3
4
5
6
7
8
9
10
11
12
13
14
15
16
17
18
19
20
21
22
23
24
25
26
27
28
29
30
31
32
33
34
35
36
37
38
39
40
41
42
43
44
45
46
47
48
49
50
51
52
53
54
55
56
57
58
59
60
61
62
63
64
65
66
67
68
69
70
71
72
73
74
75
76
77
78
79
80
81
82
83
84
85
86
87
88
89
90
91
92
93
94
95
96
97
98
99
100
101
102
103
104
105
106
107
108
109
110
111
112
113
114
115
116
117
118
119
120
121
122
123
124
125
126
127
128
129
130
131
132
133
134
135
136
137
138
139
140
141
142
143
144
145
146
147
148
149
150
151
152
153
154
155
156
157
158
159
160
161
162
163
164
165
166
167
168
169
170
171
172
173
174
175
176
177
178
179
180
181
182
183
184
185
186
187
188
189
190
191
192
193
194
195
196
197
198
199
200
201
202
203
204
205
206
207
208
209
210
211
212
213
214
215
216
217
218
219
220
221
222
223
224
225
226
227
228
229
230
231
232
233
234
235
236
237
238
239
240
241
242
243
244
245
246
247
248
249
250
251
252
253
254
255
256
257
258
259
260
261
262
263
264
265
266
267
268
269
270
271
272
273
274
275
276
277
278
279
280
281
282
283
284
285
286
287
288
289
290
291
292
293
294
295
296
297
298
299
300
301
302
303
304
305
306
307
308
309
310
311
312
313
314
315
316
317
318
319
320
321
322
323
324
325
326
327
328
329
330
331
332
333
334
335
336
337
338
339
340
341
342
343
344
345
346
347
348
349
350
351
352
353
354
355
356
357
358
359
360
361
362
363
364
365
366
367
368
369
370
371
372
373
374
375
376
377
378
379
380
381
382
383
384
385
386
387
388
389
390
391
392
393
394
395
396
397
398
399
400
401
402
403
404
405
406
407
408
409
410
411
412
413
414
415
416
417
418
419
420
421
422
423
424
425
426
427
428
429
430
431
432
433
434
435
436
437
438
439
440
441
442
443
444
445
446
447
448
449
450
451
452
453
454
455
456
457
458
459
460
461
462
463
464
465
466
467
468
469
470
471
472
473
474
475
476
477
478
479
480
481
482
483
484
485
486
487
488
489
490
491
492
493
494
495
496
497
498
499
SCALARS type int 1
LOOKUP_TABLE default
0
0
0
0
0
0
0
0
0
0
0
0
0
0
0
0
0
0
0
0
0
0
0
0
0
0
0
0
0
0
0
0
0
0
0
0
0
0
0
0
0
0
0
0
0
0
0
0
0
0
0
0
0
0
0
0
0
0
0
0
0
0
0
0
0
0
0
0
0
0
0
0
0
0
0
0
0
0
0
0
0
0
0
0
0
0
0
0
0
0
0
0
0
0
0
0
0
0
0
0
0
0
0
0
0
0
0
0
0
0
0
0
0
0
0
0
0
0
0
0
0
0
0
0
0
0
0
0
0
0
0
0
0
0
0
0
0
0
0
0
0
0
0
0
0
0
0
0
0
0
0
0
0
0
0
0
0
0
0
0
0
0
0
0
0
0
0
0
0
0
0
0
0
0
0
0
0
0
0
0
0
0
0
0
0
0
0
0
0
0
0
0
0
0
0
0
0
0
0
0
0
0
0
0
0
0
0
0
0
0
0
0
0
0
0
0
0
0
0
0
0
0
0
0
0
0
0
0
0
0
0
0
0
0
0
0
0
0
0
0
0
0
0
0
0
0
0
0
0
0
0
0
0
0
0
0
0
0
0
0
0
0
0
0
0
0
0
0
0
0
0
0
0
0
0
0
0
0
0
0
0
0
0
0
0
0
0
0
0
0
0
0
0
0
0
0
0
0
0
0
0
0
0
0
0
0
0
0
0
0
0
0
0
0
0
0
0
0
0
0
0
0
0
0
0
0
0
0
0
0
0
0
0
0
0
0
0
0
0
0
0
0
0
0
0
0
0
0
0
0
0
0
0
0
0
0
0
0
0
0
0
0
0
0
0
0
0
0
0
0
0
0
0
0
0
0
0
0
0
0
0
0
0
0
0
0
0
0
0
0
0
0
0
0
0
0
0
0
0
0
0
0
0
0
0
0
0
0
0
0
0
0
0
0
0
0
0
0
0
0
0
0
0
0
0
0
0
0
0
0
0
0
0
0
0
0
0
0
0
0
0
0
0
0
0
0
0
0
0
0
0
0
0
0
0
0
0
0
0
0
0
0
0
0
0
0
0
0
0
0
0
0
0
0
0
0
0
0
0
0
0
0
0
0
0
0
0
0
0
0
0
0
0
0
0
0
0
0
0
0
SCALARS damp_viscous double 1
LOOKUP_TABLE default
0
0
0
0
0
0
0
0
0
0
0
0
0
0
0
0
0
0
0
0
0
0
0
0
0
0
0
0
0
0
0
0
0
0
0
0
0
0
0
0
0
0
0
0
0
0
0
0
0
0
0
0
0
0
0
0
0
0
0
0
0
0
0
0
0
0
0
0
0
0
0
0
0
0
0
0
0
0
0
0
0
0
0
0
0
0
0
0
0
0
0
0
0
0
0
0
0
0
0
0
0
0
0
0
0
0
0
0
0
0
0
0
0
0
0
0
0
0
0
0
0
0
0
0
0
0
0
0
0
0
0
0
0
0
0
0
0
0
0
0
0
0
0
0
0
0
0
0
0
0
0
0
0
0
0
0
0
0
0
0
0
0
0
0
0
0
0
0
0
0
0
0
0
0
0
0
0
0
0
0
0
0
0
0
0
0
0
0
0
0
0
0
0
0
0
0
0
0
0
0
0
0
0
0
0
0
0
0
0
0
0
0
0
0
0
0
0
0
0
0
0
0
0
0
0
0
0
0
0
0
0
0
0
0
0
0
0
0
0
0
0
0
0
0
0
0
0
0
0
0
0
0
0
0
0
0
0
0
0
0
0
0
0
0
0
0
0
0
0
0
0
0
0
0
0
0
0
0
0
0
0
0
0
0
0
0
0
0
0
0
0
0
0
0
0
0
0
0
0
0
0
0
0
0
0
0
0
0
0
0
0
0
0
0
0
0
0
0
0
0
0
0
0
0
0
0
0
0
0
0
0
0
0
0
0
0
0
0
0
0
0
0
0
0
0
0
0
0
0
0
0
0
0
0
0
0
0
0
0
0
0
0
0
0
0
0
0
0
0
0
0
0
0
0
0
0
0
0
0
0
0
0
0
0
0
0
0
0
0
0
0
0
0
0
0
0
0
0
0
0
0
0
0
0
0
0
0
0
0
0
0
0
0
0
0
0
0
0
0
0
0
0
0
0
0
0
0
0
0
0
0
0
0
0
0
0
0
0
0
0
0
0
0
0
0
0
0
0
0
0
0
0
0
0
0
0
0
0
0
0
0
0
0
0
0
0
0
0
0
0
0
0
0
0
0
0
0
0
0
0
0
0
0
0
0
0
0
0
0
0
0
0
0
0
0
0
0
0
0
0
SCALARS damp_numerical double 1
LOOKUP_TABLE default
0.5
0.5
0.5
0.5
0.5
0.5
0.5
0.5
0.5
0.5
0.5
0.5
0.5
0.5
0.5
0.5
0.5
0.5
0.5
0.5
0.5
0.5
0.5
0.5
0.5
0.5
0.5
0.5
0.5
0.5
0.5
0.5
0.5
0.5
0.5
0.5
0.5
0.5
0.5
0.5
0.5
0.5
0.5
0.5
0.5
0.5
0.5
0.5
0.5
0.5
0.5
0.5
0.5
0.5
0.5
0.5
0.5
0.5
0.5
0.5
0.5
0.5
0.5
0.5
0.5
0.5
0.5
0.5
0.5
0.5
0.5
0.5
0.5
0.5
0.5
0.5
0.5
0.5
0.5
0.5
0.5
0.5
0.5
0.5
0.5
0.5
0.5
0.5
0.5
0.5
0.5
0.5
0.5
0.5
0.5
0.5
0.5
0.5
0.5
0.5
0.5
0.5
0.5
0.5
0.5
0.5
0.5
0.5
0.5
0.5
0.5
0.5
0.5
0.5
0.5
0.5
0.5
0.5
0.5
0.5
0.5
0.5
0.5
0.5
0.5
0.5
0.5
0.5
0.5
0.5
0.5
0.5
0.5
0.5
0.5
0.5
0.5
0.5
0.5
0.5
0.5
0.5
0.5
0.5
0.5
0.5
0.5
0.5
0.5
0.5
0.5
0.5
0.5
0.5
0.5
0.5
0.5
0.5
0.5
0.5
0.5
0.5
0.5
0.5
0.5
0.5
0.5
0.5
0.5
0.5
0.5
0.5
0.5
0.5
0.5
0.5
0.5
0.5
0.5
0.5
0.5
0.5
0.5
0.5
0.5
0.5
0.5
0.5
0.5
0.5
0.5
0.5
0.5
0.5
0.5
0.5
0.5
0.5
0.5
0.5
0.5
0.5
0.5
0.5
0.5
0.5
0.5
0.5
0.5
0.5
0.5
0.5
0.5
0.5
0.5
0.5
0.5
0.5
0.5
0.5
0.5
0.5
0.5
0.5
0.5
0.5
0.5
0.5
0.5
0.5
0.5
0.5
0.5
0.5
0.5
0.5
0.5
0.5
0.5
0.5
0.5
0.5
0.5
0.5
0.5
0.5
0.5
0.5
0.5
0.5
0.5
0.5
0.5
0.5
0.5
0.5
0.5
0.5
0.5
0.5
0.5
0.5
0.5
0.5
0.5
0.5
0.5
0.5
0.5
0.5
0.5
0.5
0.5
0.5
0.5
0.5
0.5
0.5
0.5
0.5
0.5
0.5
0.5
0.5
0.5
0.5
0.5
0.5
0.5
0.5
0.5
0.5
0.5
0.5
0.5
0.5
0.5
0.5
0.5
0.5
0.5
0.5
0.5
0.5
0.5
0.5
0.5
0.5
0.5
0.5
0.5
0.5
0.5
0.5
0.5
0.5
0.5
0.5
0.5
0.5
0.5
0.5
0.5
0.5
0.5
0.5
0.5
0.5
0.5
0.5
0.5
0.5
0.5
0.5
0.5
0.5
0.5
0.5
0.5
0.5
0.5
0.5
0.5
0.5
0.5
0.5
0.5
0.5
0.5
0.5
0.5
0.5
0.5
0.5
0.5
0.5
0.5
0.5
0.5
0.5
0.5
0.5
0.5
0.5
0.5
0.5
0.5
0.5
0.5
0.5
0.5
0.5
0.5
0.5
0.5
0.5
0.5
0.5
0.5
0.5
0.5
0.5
0.5
0.5
0.5
0.5
0.5
0.5
0.5
0.5
0.5
0.5
0.5
0.5
0.5
0.5
0.5
0.5
0.5
0.5
0.5
0.5
0.5
0.5
0.5
0.5
0.5
0.5
0.5
0.5
0.5
0.5
0.5
0.5
0.5
0.5
0.5
0.5
0.5
0.5
0.5
0.5
0.5
0.5
0.5
0.5
0.5
0.5
0.5
0.5
0.5
0.5
0.5
0.5
0.5
0.5
0.5
0.5
0.5
0.5
0.5
0.5
0.5
0.5
0.5
0.5
0.5
0.5
0.5
0.5
0.5
0.5
0.5
0.5
0.5
0.5
0.5
0.5
0.5
0.5
0.5
0.5
0.5
0.5
0.5
0.5
0.5
0.5
0.5
0.5
0.5
0.5
0.5
0.5
0.5
0.5
0.5
0.5
0.5
0.5
0.5
0.5
0.5
0.5
0.5
0.5
0.5
0.5
0.5
0.5
0.5
0.5
0.5
0.5
0.5
0.5
0.5
0.5
0.5
0.5
SCALARS quat double 4
LOOKUP_TABLE default
0.962735 0.0898167 -0.055707 0.248941 
0.787648 0.142289 0.599378 0.0105143 
0.987596 0.111634 -0.0258155 -0.107353 
-0.372425 -0.485557 -0.544107 -0.574005 
0.072398 0.711129 -0.385918 0.583199 
0.804736 -0.27877 -0.201192 0.483951 
0.0994724 -0.279728 -0.345068 0.890385 
0.876337 0.0561191 0.347153 0.329193 
-0.103079 0.420513 0.901238 -0.0177211 
0.0706359 0.0922525 0.001784 0.993225 
0.927945 -0.136875 -0.0852529 0.336028 
0.159661 -0.91904 -0.211785 -0.291583 
0.0683631 0.413398 -0.0610455 0.905926 
0.596586 0.711238 0.355188 -0.109849 
0.327743 0.822629 -0.19769 0.420457 
0.996643 0.0718002 -0.0377479 0.0110979 
0.640695 0.0546622 -0.0346864 0.765061 
0.989241 0.0744217 -0.024468 0.123548 
0.973864 0.112062 -0.0907624 0.175482 
-0.76034 0.176756 0.616069 0.105352 
0.834211 0.136566 0.507845 -0.16594 
-0.29497 0.850026 -0.291309 0.324942 
0.783095 -0.289094 -0.466527 -0.29247 
0.524389 0.739051 -0.399899 -0.13748 
0.984828 0.0945696 -0.0965266 0.108871 
0.93138 0.155081 -0.172305 0.280701 
-0.60186 0.702444 -0.327577 0.192433 
0.97179 0.144436 -0.166969 -0.0829713 
0.723888 -0.372922 -0.434298 0.385099 
-0.163118 0.387969 -0.339429 0.841226 
0.734036 0.346032 0.511648 0.282258 
0.338961 -0.710807 -0.152053 -0.597276 
0.169536 -0.041346 -0.941637 0.287868 
0.158241 0.118985 0.0757856 0.977271 
0.531972 0.753828 0.168464 -0.346943 
0.418735 -0.154194 0.0288986 0.894455 
-0.297832 0.508984 -0.492362 0.640165 
0.252247 0.32109 0.280419 0.868699 
0.737611 -0.62161 -0.246971 0.0923926 
0.581834 0.634815 -0.115034 -0.495224 
0.946133 0.142358 -0.162797 0.240964 
0.69744 0.192113 -0.10673 0.682113 
0.977208 -0.207057 -0.0468011 0.00134488 
0.0114742 0.818919 0.552485 -0.154918 
0.733583 -0.575437 -0.30736 -0.190414 
0.308777 0.260514 -0.676718 0.615501 
0.548079 -0.179065 0.140751 -0.80482 
-0.950052 0.140403 -0.177794 0.214657 
0.414192 0.77612 -0.383096 0.281638 
-0.839144 0.516001 0.0968808 -0.142108 
0.926921 0.295255 -0.203611 -0.110381 
0.335409 -0.120779 0.867105 -0.347912 
0.803691 -0.0192597 0.594507 -0.0164877 
-0.657211 0.428913 -0.619474 -0.018981 
-0.489794 0.502958 0.471355 -0.533815 
-0.596452 0.494148 0.484033 -0.407155 
0.0638233 0.212392 0.971498 -0.083712 
0.051871 -0.0721425 -0.862159 -0.498784 
-0.188263 0.0457349 0.781951 -0.592468 
0.357801 -0.910507 -0.206995 0.0104269 
-0.446425 0.231484 0.653186 -0.566099 
-0.863981 -0.0813386 -0.00250753 0.496904 
-0.294409 -0.719086 0.134154 0.615014 
0.113627 0.234498 0.955935 0.135232 
-0.0944612 0.0342991 0.993117 -0.0601607 
0.908506 0.253926 -0.300227 -0.141428 
-0.122933 -0.954152 -0.188154 0.197686 
0.959863 -0.166281 -0.134141 0.181716 
0.891725 0.0313137 0.414264 -0.179533 
-0.93453 -0.0776134 -0.104911 -0.331094 
0.640988 -0.463892 -0.329215 0.51532 
-0.573293 -0.737015 -0.346368 -0.0904086 
0.349811 0.3692 0.0326687 -0.860382 
-0.597751 0.734029 -0.291728 -0.137074 
0.943285 -0.24322 0.0229362 -0.224793 
0.960245 0.110924 -0.109795 -0.231451 
0.573011 -0.0767333 -0.634581 0.51291 
0.881045 -0.283403 0.363111 -0.107671 
-0.600213 -0.20366 -0.119586 0.764177 
-0.549793 0.191165 -0.0766396 -0.809512 
0.897944 0.235297 0.0369634 -0.370088 
-0.332835 0.883538 0.0181628 0.329017 
0.906434 -0.154936 0.364614 -0.146386 
-0.227194 0.831341 -0.27784 0.424334 
0.955121 -0.274546 0.0234111 -0.108721 
0.764398 -0.483025 -0.383851 0.187192 
-0.145157 -0.355188 0.0453165 -0.922343 
0.769874 0.423737 0.261816 -0.398991 
0.324976 0.926033 0.0718585 -0.178015 
-0.197476 0.557528 -0.670057 0.448542 
0.858411 -0.22659 0.402603 -0.222928 
-0.811452 0.354661 -0.461004 0.0568928 
0.880338 -0.0402278 -0.404512 0.244451 
0.829851 -0.391064 0.39743 0.0215817 
0.789849 0.0378105 0.349648 -0.502449 
0.243707 -0.510294 -0.444085 -0.694979 
0.275245 -0.794549 0.4864 0.237376 
0.243858 -0.255537 -0.695248 0.625991 
-0.589237 0.610552 0.246761 -0.468118 
0.985132 -0.0969789 -0.0116139 -0.141332 
0.840584 -0.0888408 -0.0998264 -0.524939 
0.324922 0.512962 0.739282 0.291131 
-0.0392874 0.437868 -0.893654 0.0900647 
-0.619493 -0.562991 -0.546324 -0.0282849 
-0.200375 -0.0874843 -0.460578 0.86027 
0.944778 -0.141078 0.244207 0.166895 
-0.790146 0.457349 0.255596 -0.318075 
0.124273 0.748522 0.651351 0.00364025 
0.819068 0.456287 -0.135054 -0.320453 
0.00683776 0.216409 -0.973663 0.0714233 
0.26132 -0.580855 -0.301322 0.709594 
-0.390602 -0.28509 0.685025 0.544881 
-0.0786493 -0.352177 0.233037 -0.903039 
0.823904 -0.261145 0.461547 0.199901 
-0.23876 0.0600588 0.0773268 0.96613 
0.902244 -0.360606 0.236055 -0.0140165 
-0.0152677 -0.800873 0.596123 0.0548394 
0.435918 -0.0787019 -0.396017 0.804333 
0.883154 0.088234 0.0845924 0.452877 
0.216507 0.159613 -0.821291 0.503119 
-0.0205479 0.111923 0.411989 -0.904055 
-0.12298 -0.282056 -0.739349 0.598902 
0.321453 -0.465591 -0.421966 -0.708405 
-0.931306 -0.219788 -0.186797 0.222418 
0.772533 -0.590887 0.0125201 0.23214 
0.763605 0.31486 -0.541098 -0.158064 
0.41681 0.623426 0.567376 -0.340137 
0.521247 0.265996 0.20771 -0.783839 
-0.474988 0.255952 0.825118 -0.167498 
0.452785 -0.440007 0.703083 0.327192 
-0.0306299 0.512115 0.72755 -0.45549 
-0.994247 -0.0665826 -0.0527954 0.0652042 
-0.0904392 -0.601678 -0.792072 -0.049256 
0.208704 0.209543 -0.949517 0.104652 
0.117348 -0.919428 0.190932 0.32315 
0.116437 -0.0682451 0.81826 0.55878 
0.269421 0.740451 0.222937 0.573972 
-0.661299 -0.741669 0.0490312 -0.101023 
0.301814 0.91734 -0.179686 -0.187374 
-0.0654867 0.817258 -0.572079 0.0229528 
-0.468347 0.0957867 -0.836573 0.267622 
0.425173 -0.301871 0.242761 0.818028 
-0.0969217 0.501786 -0.134524 0.848952 
0.933719 -0.279423 -0.188048 0.121364 
0.0102225 -0.511371 -0.781051 -0.358265 
-0.446464 -0.824139 0.231505 0.260519 
0.716117 -0.529534 0.366154 -0.269633 