# vtk DataFile Version 2.0
Generated by NetDEM
ASCII 
DATASET POLYDATA
POINTS 350 double
-0.41941 -0.40585 -0.463738 
-0.427385 -0.203428 -0.409245 
-0.40852 -0.00608077 -0.46297 
-0.447883 0.130851 -0.450012 
-0.449926 0.35522 -0.447998 
-0.269769 -0.430407 -0.459254 
-0.248492 -0.206345 -0.401332 
-0.198374 -0.00707239 -0.414449 
-0.172552 0.172129 -0.463845 
-0.253305 0.368737 -0.463414 
-0.0433538 -0.406309 -0.46085 
-0.082792 -0.167736 -0.429595 
-0.033147 -0.0545253 -0.417707 
0.0347975 0.181201 -0.452821 
-0.0232793 0.323382 -0.427362 
0.194489 -0.39942 -0.461727 
0.17229 -0.207834 -0.462893 
0.173754 -0.00959094 -0.461873 
0.159924 0.209831 -0.464904 
0.309189 0.417895 -0.403001 
0.425197 -0.401761 -0.450047 
0.408493 -0.296439 -0.450076 
0.339976 -0.00952192 -0.450023 
0.38232 0.0913128 -0.450015 
0.370121 0.438178 -0.465061 
-0.414151 -0.40183 -0.383693 
-0.439123 -0.199652 -0.0339875 
-0.393675 -0.00374425 -0.384985 
-0.449974 0.175683 -0.360653 
-0.449007 0.448228 -0.355099 
-0.319886 -0.410838 -0.395854 
-0.212969 -0.198452 -0.157035 
-0.142353 -0.0816073 0.147071 
-0.302202 0.160569 -0.464987 
-0.14351 0.398386 -0.44391 
-0.0707865 -0.413044 -0.390257 
0.108571 -0.215438 0.0983933 
0.0118386 0.0231232 -0.0553775 
0.0214549 0.254791 -0.443621 
0.117685 0.294425 -0.408732 
0.208452 -0.405839 -0.38926 
0.177358 -0.200388 -0.389626 
0.184295 -0.00303135 -0.382729 
0.196751 0.112214 -0.455857 
0.297934 0.397519 -0.305753 
0.401485 -0.449994 -0.365658 
0.416925 -0.349053 -0.365517 
0.279764 -0.184255 -0.450007 
0.450001 0.136971 -0.392278 
0.423261 0.338978 -0.455207 
-0.416558 -0.418347 -0.304517 
-0.31661 -0.203473 -0.0470032 
-0.347028 0.00533822 -0.31726 
-0.263616 0.243698 -0.428192 
-0.439865 0.275396 -0.352543 
-0.182974 -0.370991 -0.452394 
0.0140346 -0.225311 -0.00679834 
-0.182865 -0.0879835 0.249613 
-0.155723 0.133339 -0.385858 
-0.345815 0.33495 -0.301999 
0.0353441 -0.434101 -0.391954 
0.229869 -0.334641 0.380057 
0.072585 0.0664254 0.105942 
-0.0309057 0.223888 -0.362011 
0.250799 0.342553 -0.459138 
0.198515 -0.416121 -0.314744 
0.0910538 -0.11834 -0.439748 
0.177403 0.0321293 -0.315059 
0.274694 0.0667816 -0.443542 
0.121056 0.17538 -0.362237 
0.308151 -0.448789 -0.32535 
0.380232 -0.199837 -0.448922 
0.377587 -0.0929199 -0.40979 
0.449803 0.232949 -0.36419 
0.439151 0.255719 -0.459812 
-0.42391 -0.429225 -0.210262 
-0.290458 -0.205451 0.0557648 
-0.312207 0.0236123 -0.250249 
-0.249498 0.189085 -0.328815 
-0.34954 0.157605 -0.216497 
-0.158401 -0.445467 -0.387341 
-0.223433 -0.168715 -0.0170819 
-0.264167 0.0529861 0.236779 
-0.0662397 0.149285 -0.428431 
-0.355029 0.399301 -0.372154 
0.0970959 -0.445891 -0.315152 
0.328826 -0.299126 0.164862 
-0.103881 -0.163687 -0.0787669 
0.0288951 0.0824586 -0.450443 
0.0726355 0.388939 -0.38011 
0.238463 -0.42053 -0.226365 
0.172618 -0.272805 -0.353741 
0.166466 0.0429135 -0.244335 
0.260217 0.17822 -0.444571 
0.154984 0.44997 -0.450007 
0.358974 -0.321098 -0.289047 
0.45 -0.107797 -0.342443 
0.384251 0.167437 -0.323365 
0.327598 0.308925 -0.408988 
0.424232 0.363713 -0.373625 
-0.406764 -0.439067 -0.116491 
-0.427668 -0.268465 0.0452488 
-0.374411 -0.000310973 -0.171474 
-0.385311 0.0963244 -0.296129 
-0.449795 0.379348 -0.280299 
-0.25357 -0.421697 -0.347354 
-0.206571 -0.210732 0.109922 
-0.189458 0.0217977 0.295737 
-0.0682165 0.0602254 -0.314662 
-0.433436 0.257429 -0.441466 
0.0695992 -0.348258 -0.334185 
0.113018 -0.159633 0.252245 
-0.0128004 -0.0546429 0.010719 
-7.78421e-05 0.133026 -0.30843 
-0.0304912 0.437415 -0.391072 
0.257936 -0.389967 -0.161242 
0.264703 -0.295556 -0.312217 
0.133237 0.0441572 -0.178419 
0.233782 0.231341 -0.373796 
0.359749 0.449983 -0.229434 
0.347374 -0.407155 -0.239062 
0.449871 -0.202993 -0.377153 
0.433604 0.0103373 -0.419043 
0.327374 0.209954 -0.393812 
0.396976 0.450287 -0.348809 
-0.460162 -0.452078 -0.0272676 
-0.335331 -0.232936 0.15574 
-0.459254 -0.0205182 -0.16553 
-0.239211 0.194268 -0.22842 
-0.329886 0.436096 -0.270775 
-0.161369 -0.416489 -0.301196 
-0.104288 -0.257893 0.0315626 
-0.154418 -0.161967 0.315178 
-0.114221 0.162807 -0.235814 
-0.235017 0.320994 -0.3251 
-0.077279 -0.333993 -0.336334 
0.356799 -0.332504 0.307451 
0.204851 0.0212656 0.117912 
0.0499603 0.156058 -0.244156 
-0.0991582 0.319683 -0.362783 
0.200479 -0.408415 -0.0812917 
0.240568 -0.163583 -0.317223 
0.14793 0.00915458 -0.0798925 
0.201642 0.307034 -0.322313 
0.201905 0.393165 -0.382361 
0.417523 -0.450002 -0.18187 
0.359667 -0.165304 -0.34322 
0.291603 -0.0543836 -0.36587 
0.449846 0.0639254 -0.323989 
0.436777 0.401082 -0.280699 
-0.422206 -0.449916 0.117056 
-0.259019 -0.191242 0.277935 
-0.449662 -0.0505092 -0.0705672 
-0.211353 0.282455 -0.190321 
-0.315124 0.293323 -0.222141 
-0.122582 -0.373229 -0.228112 
0.0923594 -0.323163 0.191216 
-0.321396 0.253479 0.174927 
-0.104905 0.26437 -0.202438 
-0.223584 0.425212 -0.376533 
-0.0149415 -0.358882 -0.2571 
0.102475 -0.204322 0.356811 
-0.049939 -0.0600679 0.106863 
0.0438996 0.180196 -0.153682 
-0.00964193 0.292139 -0.272545 
0.0955633 -0.450628 -0.0500569 
0.161188 -0.125062 -0.253637 
0.225065 -0.0521568 -0.0164193 
0.223705 0.187776 -0.312466 
0.154279 0.44762 -0.264925 
0.390587 -0.229024 -0.263699 
0.369961 -0.0928777 -0.275079 
0.325487 0.0637338 -0.372499 
0.397319 0.298657 -0.303778 
0.445947 0.378503 -0.185145 
-0.301346 -0.437836 0.117689 
-0.449092 -0.164789 0.13644 
-0.39782 -0.00307842 -0.0261675 
-0.449886 0.134088 -0.217005 
-0.410727 0.279226 -0.248683 
-0.259273 -0.387425 -0.277302 
-0.148899 -0.319081 0.125113 
-0.218306 0.220928 0.226911 
-0.125844 0.193766 -0.140422 
-0.154261 0.438645 -0.249568 
0.0413032 -0.441532 -0.250275 
-0.0655102 -0.110846 0.205615 
-0.0799657 -0.195974 0.14112 
-0.0328508 0.246861 -0.114355 
-0.0336207 0.42887 -0.279518 
0.101756 -0.442001 0.0508212 
0.152251 -0.126663 -0.157096 
0.263034 -0.120404 0.0434367 
0.209247 0.154036 -0.240765 
0.249002 0.44997 -0.232952 
0.414489 -0.312146 -0.206416 
0.427313 -0.170032 -0.191606 
0.364834 0.051351 -0.240182 
0.314991 0.242086 -0.299884 
0.384553 0.434938 -0.144871 
-0.227797 -0.409243 0.0782436 
-0.449781 0.139352 0.0161027 
-0.304175 0.126649 0.00217914 
-0.251175 0.0983495 -0.202803 
-0.411001 0.449858 -0.207207 
-0.216507 -0.401525 -0.18672 
-0.0586074 -0.33744 0.0858742 
-0.0305423 -0.236441 0.236846 
-0.17102 0.136209 -0.0559018 
-0.185549 0.362701 -0.165975 
0.00310791 -0.410681 -0.176692 
0.0988899 -0.361866 0.444108 
0.020322 0.149685 0.149361 
-0.0431241 0.175226 -0.0464675 
0.101247 0.359229 -0.197962 
0.159327 -0.396214 0.114567 
0.198347 -0.185958 -0.0904633 
0.283992 -0.111399 0.13703 
0.156461 0.229309 -0.255094 
0.19988 0.34335 -0.214295 
0.406369 -0.368715 -0.124628 
0.40946 -0.267315 -0.117161 
0.421407 -0.0318901 -0.214205 
0.319754 0.139835 -0.25209 
0.41042 0.402267 -0.0780424 
-0.220269 -0.339839 0.186096 
-0.448795 -0.270537 0.334202 
-0.437597 0.340397 0.188018 
-0.363335 0.296013 0.345807 
-0.411493 0.404786 0.41933 
-0.160866 -0.403924 -0.118524 
-0.081652 -0.249992 0.432873 
-0.153702 -0.0110202 0.429841 
-0.202588 0.178666 0.0207493 
-0.215478 0.347763 -0.0587868 
-0.0172316 -0.396472 -0.0931869 
-0.0135978 -0.145986 0.434378 
0.0125547 0.114592 0.371539 
0.0214903 0.146059 0.0365583 
0.000936229 0.41931 -0.113851 
0.275958 -0.39204 0.135287 
0.213206 -0.31622 -0.0587318 
0.262856 -0.0294579 0.196385 
0.177503 0.252779 -0.167449 
0.196828 0.397128 0.394912 
0.384111 -0.449882 0.0455807 
0.449683 -0.20458 0.154461 
0.324202 0.0400615 0.440793 
0.373323 0.304674 0.396394 
0.417743 0.397603 0.00624792 
-0.341491 -0.336931 0.227453 
-0.169176 -0.20362 0.20239 
-0.334271 -0.0359604 0.238073 
-0.26274 0.18774 -0.131255 
-0.356792 0.449928 -0.0655944 
-0.214255 -0.403211 -0.0366844 
0.0255361 -0.259314 0.317438 
-0.221106 0.0714405 0.392331 
-0.212023 0.275051 0.0896079 
-0.192038 0.436624 -0.0229621 
-0.0036628 -0.393621 -0.00413064 
0.449941 -0.356507 0.274113 
0.0895965 0.391179 0.148262 
-0.0528464 0.279136 0.0263881 
-0.0174258 0.426159 0.00967419 
0.322274 -0.443949 0.168107 
0.355827 -0.150605 0.0738509 
0.184564 0.013805 0.241192 
0.224095 0.194002 -0.0979614 
0.0832353 0.264131 -0.309101 
0.394103 -0.305586 -0.0246113 
0.391801 -0.170574 -0.098099 
0.39953 0.0589099 -0.146688 
0.437415 0.21904 -0.256185 
0.394175 0.432344 0.0846004 
-0.451108 -0.448066 0.291793 
-0.199012 -0.241871 0.355637 
-0.440255 -0.10792 0.376849 
-0.449875 0.0680259 0.105532 
-0.354194 0.232139 -0.146302 
-0.131266 -0.434197 0.0837836 
-0.0519909 -0.328781 0.200964 
-0.395578 0.448507 0.329587 
-0.263155 0.330602 0.0236614 
-0.190472 0.40564 0.100461 
-4.51391e-05 -0.414018 0.084129 
-0.0242282 0.0233009 0.390738 
0.0392465 0.143653 0.2474 
-0.0376524 0.257901 0.121215 
0.0114657 0.403831 0.0867 
0.274288 -0.450227 0.304006 
0.170028 -0.276735 0.442997 
0.101577 0.0295343 0.271491 
0.204229 0.17571 0.0291045 
0.129747 0.195107 0.0836944 
0.398316 -0.264267 0.0668079 
0.408535 -0.19041 -0.00150765 
0.373026 -0.07398 -0.125389 
0.448995 0.29338 -0.00899097 
0.387 0.41171 0.172552 
-0.432747 -0.440315 0.410533 
-0.42665 -0.0566616 0.203961 
-0.366364 -0.0106226 0.423037 
-0.424196 0.161456 -0.116897 
-0.442913 0.449817 -0.00962936 
-0.176995 -0.429017 0.216592 
-0.0151593 -0.33952 0.409013 
-0.308529 0.239401 0.273392 
-0.102075 0.218768 0.356258 
-0.215029 0.395174 0.215429 
0.000548142 -0.41528 0.179876 
-0.268386 -0.066064 0.342577 
-0.0417392 -0.0611333 0.290015 
-0.00809879 0.243961 0.273214 
-0.0127758 0.401999 0.169525 
0.08966 -0.445745 0.406718 
0.37275 -0.0941346 0.423678 
0.138893 -0.0303414 0.430154 
0.308927 0.33482 0.0147852 
0.295205 0.449914 0.141574 
0.396163 -0.406234 0.385006 
0.423951 -0.181743 0.431592 
0.264401 0.0522643 -0.213169 
0.366997 0.317616 0.143322 
0.417161 0.42987 0.27892 
-0.305659 -0.390618 0.425374 
-0.34231 -0.222948 0.32838 
-0.43768 0.0584492 0.213564 
-0.422724 0.211948 0.206249 
-0.371847 0.316627 0.0503769 
-0.109538 -0.429087 0.32954 
-0.0534491 -0.197728 0.351505 
-0.328979 0.195123 0.389346 
-0.135824 0.320011 0.137842 
-0.202598 0.39024 0.332103 
-0.00342857 -0.40543 0.270724 
0.0468082 -0.0439465 0.334236 
0.00180728 0.0489586 0.248551 
0.011286 0.213049 0.374208 
-0.00498709 0.397161 0.266747 
0.200225 -0.439331 0.403122 
0.33941 -0.224559 0.361832 
0.17015 -0.00301757 0.356494 
0.197198 0.197198 0.172648 
0.211809 0.399797 0.0887524 
0.44995 -0.437116 0.130686 
0.449479 -0.295489 0.364101 
0.396488 -0.00351175 0.171939 
0.396508 0.196508 0.171958 
0.393157 0.41646 0.424902 
VERTICES 350 700
1 0
1 1
1 2
1 3
1 4
1 5
1 6
1 7
1 8
1 9
1 10
1 11
1 12
1 13
1 14
1 15
1 16
1 17
1 18
1 19
1 20
1 21
1 22
1 23
1 24
1 25
1 26
1 27
1 28
1 29
1 30
1 31
1 32
1 33
1 34
1 35
1 36
1 37
1 38
1 39
1 40
1 41
1 42
1 43
1 44
1 45
1 46
1 47
1 48
1 49
1 50
1 51
1 52
1 53
1 54
1 55
1 56
1 57
1 58
1 59
1 60
1 61
1 62
1 63
1 64
1 65
1 66
1 67
1 68
1 69
1 70
1 71
1 72
1 73
1 74
1 75
1 76
1 77
1 78
1 79
1 80
1 81
1 82
1 83
1 84
1 85
1 86
1 87
1 88
1 89
1 90
1 91
1 92
1 93
1 94
1 95
1 96
1 97
1 98
1 99
1 100
1 101
1 102
1 103
1 104
1 105
1 106
1 107
1 108
1 109
1 110
1 111
1 112
1 113
1 114
1 115
1 116
1 117
1 118
1 119
1 120
1 121
1 122
1 123
1 124
1 125
1 126
1 127
1 128
1 129
1 130
1 131
1 132
1 133
1 134
1 135
1 136
1 137
1 138
1 139
1 140
1 141
1 142
1 143
1 144
1 145
1 146
1 147
1 148
1 149
1 150
1 151
1 152
1 153
1 154
1 155
1 156
1 157
1 158
1 159
1 160
1 161
1 162
1 163
1 164
1 165
1 166
1 167
1 168
1 169
1 170
1 171
1 172
1 173
1 174
1 175
1 176
1 177
1 178
1 179
1 180
1 181
1 182
1 183
1 184
1 185
1 186
1 187
1 188
1 189
1 190
1 191
1 192
1 193
1 194
1 195
1 196
1 197
1 198
1 199
1 200
1 201
1 202
1 203
1 204
1 205
1 206
1 207
1 208
1 209
1 210
1 211
1 212
1 213
1 214
1 215
1 216
1 217
1 218
1 219
1 220
1 221
1 222
1 223
1 224
1 225
1 226
1 227
1 228
1 229
1 230
1 231
1 232
1 233
1 234
1 235
1 236
1 237
1 238
1 239
1 240
1 241
1 242
1 243
1 244
1 245
1 246
1 247
1 248
1 249
1 250
1 251
1 252
1 253
1 254
1 255
1 256
1 257
1 258
1 259
1 260
1 261
1 262
1 263
1 264
1 265
1 266
1 267
1 268
1 269
1 270
1 271
1 272
1 273
1 274
1 275
1 276
1 277
1 278
1 279
1 280
1 281
1 282
1 283
1 284
1 285
1 286
1 287
1 288
1 289
1 290
1 291
1 292
1 293
1 294
1 295
1 296
1 297
1 298
1 299
1 300
1 301
1 302
1 303
1 304
1 305
1 306
1 307
1 308
1 309
1 310
1 311
1 312
1 313
1 314
1 315
1 316
1 317
1 318
1 319
1 320
1 321
1 322
1 323
1 324
1 325
1 326
1 327
1 328
1 329
1 330
1 331
1 332
1 333
1 334
1 335
1 336
1 337
1 338
1 339
1 340
1 341
1 342
1 343
1 344
1 345
1 346
1 347
1 348
1 349
POINT_DATA 350
SCALARS id int 1
LOOKUP_TABLE default
0
1
2
3
4
5
6
7
8
9
10
11
12
13
14
15
16
17
18
19
20
21
22
23
24
25
26
27
28
29
30
31
32
33
34
35
36
37
38
39
40
41
42
43
44
45
46
47
48
49
50
51
52
53
54
55
56
57
58
59
60
61
62
63
64
65
66
67
68
69
70
71
72
73
74
75
76
77
78
79
80
81
82
83
84
85
86
87
88
89
90
91
92
93
94
95
96
97
98
99
100
101
102
103
104
105
106
107
108
109
110
111
112
113
114
115
116
117
118
119
120
121
122
123
124
125
126
127
128
129
130
131
132
133
134
135
136
137
138
139
140
141
142
143
144
145
146
147
148
149
150
151
152
153
154
155
156
157
158
159
160
161
162
163
164
165
166
167
168
169
170
171
172
173
174
175
176
177
178
179
180
181
182
183
184
185
186
187
188
189
190
191
192
193
194
195
196
197
198
199
200
201
202
203
204
205
206
207
208
209
210
211
212
213
214
215
216
217
218
219
220
221
222
223
224
225
226
227
228
229
230
231
232
233
234
235
236
237
238
239
240
241
242
243
244
245
246
247
248
249
250
251
252
253
254
255
256
257
258
259
260
261
262
263
264
265
266
267
268
269
270
271
272
273
274
275
276
277
278
279
280
281
282
283
284
285
286
287
288
289
290
291
292
293
294
295
296
297
298
299
300
301
302
303
304
305
306
307
308
309
310
311
312
313
314
315
316
317
318
319
320
321
322
323
324
325
326
327
328
329
330
331
332
333
334
335
336
337
338
339
340
341
342
343
344
345
346
347
348
349
SCALARS type int 1
LOOKUP_TABLE default
0
0
0
0
0
0
0
0
0
0
0
0
0
0
0
0
0
0
0
0
0
0
0
0
0
0
0
0
0
0
0
0
0
0
0
0
0
0
0
0
0
0
0
0
0
0
0
0
0
0
0
0
0
0
0
0
0
0
0
0
0
0
0
0
0
0
0
0
0
0
0
0
0
0
0
0
0
0
0
0
0
0
0
0
0
0
0
0
0
0
0
0
0
0
0
0
0
0
0
0
0
0
0
0
0
0
0
0
0
0
0
0
0
0
0
0
0
0
0
0
0
0
0
0
0
0
0
0
0
0
0
0
0
0
0
0
0
0
0
0
0
0
0
0
0
0
0
0
0
0
0
0
0
0
0
0
0
0
0
0
0
0
0
0
0
0
0
0
0
0
0
0
0
0
0
0
0
0
0
0
0
0
0
0
0
0
0
0
0
0
0
0
0
0
0
0
0
0
0
0
0
0
0
0
0
0
0
0
0
0
0
0
0
0
0
0
0
0
0
0
0
0
0
0
0
0
0
0
0
0
0
0
0
0
0
0
0
0
0
0
0
0
0
0
0
0
0
0
0
0
0
0
0
0
0
0
0
0
0
0
0
0
0
0
0
0
0
0
0
0
0
0
0
0
0
0
0
0
0
0
0
0
0
0
0
0
0
0
0
0
0
0
0
0
0
0
0
0
0
0
0
0
0
0
0
0
0
0
0
0
0
0
0
0
0
0
0
0
0
0
0
0
0
0
0
0
0
0
0
0
0
0
0
0
0
0
0
0
0
0
0
0
0
0
0
0
0
0
0
0
SCALARS damp_viscous double 1
LOOKUP_TABLE default
0
0
0
0
0
0
0
0
0
0
0
0
0
0
0
0
0
0
0
0
0
0
0
0
0
0
0
0
0
0
0
0
0
0
0
0
0
0
0
0
0
0
0
0
0
0
0
0
0
0
0
0
0
0
0
0
0
0
0
0
0
0
0
0
0
0
0
0
0
0
0
0
0
0
0
0
0
0
0
0
0
0
0
0
0
0
0
0
0
0
0
0
0
0
0
0
0
0
0
0
0
0
0
0
0
0
0
0
0
0
0
0
0
0
0
0
0
0
0
0
0
0
0
0
0
0
0
0
0
0
0
0
0
0
0
0
0
0
0
0
0
0
0
0
0
0
0
0
0
0
0
0
0
0
0
0
0
0
0
0
0
0
0
0
0
0
0
0
0
0
0
0
0
0
0
0
0
0
0
0
0
0
0
0
0
0
0
0
0
0
0
0
0
0
0
0
0
0
0
0
0
0
0
0
0
0
0
0
0
0
0
0
0
0
0
0
0
0
0
0
0
0
0
0
0
0
0
0
0
0
0
0
0
0
0
0
0
0
0
0
0
0
0
0
0
0
0
0
0
0
0
0
0
0
0
0
0
0
0
0
0
0
0
0
0
0
0
0
0
0
0
0
0
0
0
0
0
0
0
0
0
0
0
0
0
0
0
0
0
0
0
0
0
0
0
0
0
0
0
0
0
0
0
0
0
0
0
0
0
0
0
0
0
0
0
0
0
0
0
0
0
0
0
0
0
0
0
0
0
0
0
0
0
0
0
0
0
0
0
0
0
0
0
0
0
0
0
0
0
0
SCALARS damp_numerical double 1
LOOKUP_TABLE default
0.5
0.5
0.5
0.5
0.5
0.5
0.5
0.5
0.5
0.5
0.5
0.5
0.5
0.5
0.5
0.5
0.5
0.5
0.5
0.5
0.5
0.5
0.5
0.5
0.5
0.5
0.5
0.5
0.5
0.5
0.5
0.5
0.5
0.5
0.5
0.5
0.5
0.5
0.5
0.5
0.5
0.5
0.5
0.5
0.5
0.5
0.5
0.5
0.5
0.5
0.5
0.5
0.5
0.5
0.5
0.5
0.5
0.5
0.5
0.5
0.5
0.5
0.5
0.5
0.5
0.5
0.5
0.5
0.5
0.5
0.5
0.5
0.5
0.5
0.5
0.5
0.5
0.5
0.5
0.5
0.5
0.5
0.5
0.5
0.5
0.5
0.5
0.5
0.5
0.5
0.5
0.5
0.5
0.5
0.5
0.5
0.5
0.5
0.5
0.5
0.5
0.5
0.5
0.5
0.5
0.5
0.5
0.5
0.5
0.5
0.5
0.5
0.5
0.5
0.5
0.5
0.5
0.5
0.5
0.5
0.5
0.5
0.5
0.5
0.5
0.5
0.5
0.5
0.5
0.5
0.5
0.5
0.5
0.5
0.5
0.5
0.5
0.5
0.5
0.5
0.5
0.5
0.5
0.5
0.5
0.5
0.5
0.5
0.5
0.5
0.5
0.5
0.5
0.5
0.5
0.5
0.5
0.5
0.5
0.5
0.5
0.5
0.5
0.5
0.5
0.5
0.5
0.5
0.5
0.5
0.5
0.5
0.5
0.5
0.5
0.5
0.5
0.5
0.5
0.5
0.5
0.5
0.5
0.5
0.5
0.5
0.5
0.5
0.5
0.5
0.5
0.5
0.5
0.5
0.5
0.5
0.5
0.5
0.5
0.5
0.5
0.5
0.5
0.5
0.5
0.5
0.5
0.5
0.5
0.5
0.5
0.5
0.5
0.5
0.5
0.5
0.5
0.5
0.5
0.5
0.5
0.5
0.5
0.5
0.5
0.5
0.5
0.5
0.5
0.5
0.5
0.5
0.5
0.5
0.5
0.5
0.5
0.5
0.5
0.5
0.5
0.5
0.5
0.5
0.5
0.5
0.5
0.5
0.5
0.5
0.5
0.5
0.5
0.5
0.5
0.5
0.5
0.5
0.5
0.5
0.5
0.5
0.5
0.5
0.5
0.5
0.5
0.5
0.5
0.5
0.5
0.5
0.5
0.5
0.5
0.5
0.5
0.5
0.5
0.5
0.5
0.5
0.5
0.5
0.5
0.5
0.5
0.5
0.5
0.5
0.5
0.5
0.5
0.5
0.5
0.5
0.5
0.5
0.5
0.5
0.5
0.5
0.5
0.5
0.5
0.5
0.5
0.5
0.5
0.5
0.5
0.5
0.5
0.5
0.5
0.5
0.5
0.5
0.5
0.5
0.5
0.5
0.5
0.5
0.5
0.5
0.5
0.5
0.5
0.5
0.5
0.5
0.5
0.5
0.5
0.5
0.5
0.5
0.5
0.5
0.5
0.5
0.5
0.5
0.5
0.5
0.5
0.5
0.5
0.5
SCALARS quat double 4
LOOKUP_TABLE default
0.977812 0.0842602 -0.0522196 0.184544 
0.610083 0.172004 0.764158 0.119479 
0.997113 0.0578999 -0.0402387 -0.0281716 
-0.40268 -0.349149 -0.71163 -0.45774 
0.209868 0.649906 -0.216412 0.69767 
0.80877 -0.264091 -0.193031 0.488759 
0.524189 -0.0349943 0.505119 0.684731 
0.939457 0.0768059 0.295682 0.15522 
-0.0951955 0.547812 0.831161 -0.00351789 
0.284455 0.0677555 0.0365666 0.955593 
0.926711 -0.00456698 -0.00587944 0.3757 
0.812053 -0.484203 -0.309219 0.10247 
-0.00782466 0.38702 0.24532 0.888804 
0.606363 0.733703 0.286914 -0.108096 
0.433262 0.78283 -0.275172 0.35177 
0.996959 0.070008 -0.0202134 -0.0276196 
0.635511 0.0552481 0.00681992 0.770082 
0.974963 0.0839629 -0.00306949 0.205881 
0.966684 0.116566 -0.0888371 0.209864 
-0.842741 0.303459 0.443599 -0.0303264 
0.959042 -0.00795227 0.28171 -0.0285441 
-0.208123 0.5838 -0.490455 0.61263 
0.814594 -0.240047 -0.500909 -0.167046 
0.582109 0.736096 -0.322059 -0.124855 
0.983901 0.105228 -0.0988573 0.105322 
0.984231 0.10578 0.022901 0.139909 
-0.640873 0.120778 0.740329 -0.163116 
0.99972 4.74105e-05 0.0232145 -0.00448926 
0.579214 -0.328979 -0.596508 0.447731 
0.25161 0.38663 0.565996 0.68327 
0.799241 0.290746 0.423087 0.312535 
0.753521 -0.151067 0.588629 0.250799 
0.649305 0.640282 0.281352 0.298803 
0.311018 0.127922 0.0496565 0.940446 
0.450723 0.739937 0.246601 -0.4342 
0.532289 -0.0100768 0.0417161 0.845475 
0.254269 0.36268 0.463855 0.767235 
0.184583 0.510911 0.818079 -0.1888 
0.750531 -0.60404 -0.267927 -0.00742086 
0.482726 0.720315 -0.0261957 -0.497429 
0.975569 0.10014 -0.127578 0.148193 
0.746527 0.183498 -0.0841076 0.633997 
0.981731 -0.0305547 0.0465594 0.181944 
0.0140498 0.816984 0.556815 -0.149321 
0.693983 -0.36155 -0.601192 -0.161978 
0.756806 0.432534 -0.445976 0.203137 
0.487198 -0.469244 0.396527 -0.620656 
-0.89206 0.408503 -0.148166 0.124099 
0.447059 0.736774 -0.382977 0.332611 
-0.824002 0.524054 0.140743 -0.163035 
0.956313 0.128543 -0.262566 0.000150235 
-0.131037 0.155643 0.978509 0.0335326 
0.997333 -0.0351219 0.0405039 -0.0495241 
-0.122323 -0.141746 -0.358194 -0.914681 
-0.497494 0.630105 0.32378 -0.500633 
-0.551181 0.3741 0.528663 -0.526084 
-0.117927 -0.0470092 0.481026 -0.867466 
0.790212 -0.487753 -0.232948 -0.288785 
-0.244636 0.0559759 0.592977 -0.765113 
0.237158 -0.946151 -0.215839 -0.044365 
-0.185107 0.533884 0.595329 -0.571215 
-0.118152 -0.886023 -0.166428 0.4163 
-0.470741 0.504076 -0.0808377 0.719567 
-0.204269 0.210124 0.92411 0.245241 
-0.0969251 0.142819 0.96883 -0.1777 
0.90223 0.243344 -0.35604 -0.000752123 
0.171056 -0.83298 -0.137674 0.507868 
0.967277 -0.132068 -0.0159809 0.216051 
0.888834 -0.0472889 0.428108 -0.156401 
-0.947395 -0.268953 -0.172332 -0.0201917 
0.490447 -0.47034 -0.724131 0.117796 
-0.656993 -0.727754 -0.0911605 0.174423 
0.35867 0.311464 -0.384803 -0.791374 
-0.575737 0.760092 -0.293967 -0.0661057 
0.951824 -0.251266 0.0121954 -0.175349 
0.920688 0.257531 -0.27552 -0.100498 
0.893872 0.105616 0.423711 0.101519 
0.996676 -0.0173718 -0.0783983 0.013776 
0.0154459 -0.158959 -0.414889 -0.895746 
-0.266863 0.00428297 -0.479231 -0.836124 
0.803251 0.423431 -0.215292 -0.359366 
0.685568 -0.185664 -0.174027 0.682085 
-0.102148 -0.8218 -0.560529 0.00416084 
-0.067957 0.8098 -0.197309 0.548339 
0.909651 0.32796 0.0843034 0.240563 
0.916324 -0.195573 -0.0677175 0.342806 
-0.329989 -0.312387 -0.884006 -0.109797 
-0.250853 -0.271254 -0.899263 -0.234135 
0.627706 0.724256 0.0347608 -0.28325 
-0.402788 0.151421 -0.522953 0.735767 
0.956002 -0.0781038 0.222065 -0.175061 
-0.547309 0.821282 -0.159765 -0.0205695 
0.952389 -0.00440707 -0.138614 0.271517 
0.878743 -0.277668 0.382502 0.0663614 
0.800786 -0.0690441 0.44593 -0.393854 
0.564415 -0.642448 -0.138549 -0.4995 
0.543752 -0.486283 0.340534 0.59321 
0.431571 0.0556923 -0.668454 0.60317 
-0.626582 0.586261 -0.059889 -0.510006 
0.994084 0.0084266 -0.064932 -0.0866572 
0.90325 0.19857 0.0525771 -0.376756 
-0.668918 0.131655 -0.706678 0.189267 
0.465329 0.395326 -0.791461 -0.0278503 
-0.110686 -0.948635 -0.0996777 -0.279115 
-0.380444 -0.649883 -0.355657 -0.553554 
0.927879 -0.173134 0.199537 0.263154 
-0.625362 0.668359 0.380328 -0.132548 
-0.257109 -0.645304 -0.698204 -0.173171 
0.586571 0.780847 0.0686299 -0.203721 
-0.113406 0.246031 -0.94497 0.183409 
0.549867 -0.609463 -0.303425 0.483874 
-0.737146 0.0207116 -0.554862 -0.385117 
0.051471 -0.141028 0.342394 -0.927485 
0.96351 -0.047779 0.257443 -0.0555772 
-0.00744212 0.491318 -0.0871422 0.866578 
0.994359 -0.0152902 -0.0238156 0.102219 
0.609734 -0.548427 0.517336 0.244575 
0.725353 0.0638109 -0.264542 0.632304 
0.896949 0.0959653 0.0673094 0.426313 
0.353223 0.267912 -0.769068 0.460425 
0.237942 0.385359 0.174386 -0.874341 
-0.106181 -0.282328 -0.639117 0.707493 
-0.234598 -0.320225 -0.614856 -0.681448 
-0.936315 -0.269261 -0.143309 0.173997 
0.873092 -0.431712 0.113865 0.19588 
0.652154 0.346382 -0.665941 -0.106009 
-0.274512 0.0802963 0.861149 0.420259 
0.621065 0.377727 -0.524337 -0.443477 
-0.0489261 -0.32004 0.889007 0.323801 
0.0319849 -0.292363 0.665591 0.685923 
-0.229102 0.399194 0.882637 -0.0954427 
-0.713269 -0.465814 0.493455 0.175406 
0.682315 0.136368 0.379246 0.609936 
0.514937 0.854042 -0.0691955 0.025787 
-0.204615 -0.828032 0.521261 -0.027982 
0.497342 -0.446626 0.00832984 0.743712 
0.709993 0.195576 0.605471 0.301768 
0.150862 0.771437 0.523254 0.329138 
0.143393 0.871042 0.220078 -0.415077 
-0.0219396 0.880046 -0.435441 0.188224 
0.450717 0.356243 -0.810277 0.115742 
0.683652 -0.26817 -0.123669 0.667391 
0.667561 0.441032 0.227334 0.555133 
0.974779 -0.178982 -0.11535 0.0668198 
-0.0156659 -0.436647 -0.819537 -0.370746 
0.392598 -0.882689 0.240139 -0.0951889 
0.82103 -0.170583 0.536712 0.0935465 
0.1463 -0.97813 0.113097 -0.0952237 
-0.152424 -0.613089 -0.111658 -0.767086 
-0.267963 0.96313 0.0202516 0.0128556 
-0.00295639 -0.239035 0.92815 -0.28529 
-0.600289 0.231609 0.739668 -0.197233 
0.806087 -0.195888 0.296719 -0.473086 
-0.952683 0.0282397 0.0705735 -0.294308 
-0.527421 -0.21625 -0.516363 0.639087 
0.466488 -0.0271082 -0.730633 0.497824 
0.86718 -0.114362 -0.45809 0.158345 
-0.0995474 -0.871718 -0.0518867 0.476975 
0.927725 0.13384 -0.0142957 0.348151 
-0.297474 0.215785 -0.824331 0.430608 
-0.48801 0.804613 0.32825 0.0818277 
0.628142 -0.542847 -0.556816 -0.0266694 
-0.499676 -0.474494 -0.512474 -0.512396 
0.85571 -0.0466676 -0.482924 -0.179909 
-0.335685 -0.457439 0.823386 0.0100498 
0.73959 0.295946 -0.604251 0.0174093 
0.64432 -0.0156424 -0.060175 0.762225 
0.57876 0.801395 0.144952 -0.042327 
-0.246842 0.945324 0.18096 0.112629 
-0.395903 0.155511 0.166595 -0.889564 
-0.355885 -0.778156 -0.0911984 0.509413 
0.132595 0.7342 0.485808 0.455367 
0.681938 -0.210706 0.528319 -0.459828 
0.148941 -0.88452 0.212582 0.387621 
0.846918 -0.356391 -0.385563 -0.084002 
0.713401 -0.511068 0.330507 -0.347323 
-0.311609 0.932254 -0.160009 -0.0905455 
0.984104 0.0801272 0.150453 -0.0498223 
-0.981475 -0.184086 -0.0116736 -0.0517934 
-0.0955634 0.156867 -0.774247 -0.605641 
0.824652 -0.354617 -0.0928688 0.43078 
0.688799 -0.40672 0.486731 -0.351037 
-0.688797 0.684264 -0.111599 -0.211867 
-0.624544 0.626274 0.178238 0.431228 
-0.178087 0.810702 0.555691 -0.0474816 
0.816582 0.32175 0.445767 0.175961 
0.393986 -0.533166 0.468417 -0.584033 
0.391236 0.397467 0.514477 0.651358 
0.960096 -0.086275 -0.23449 0.125649 
0.285041 0.851364 -0.189003 0.397755 
0.923517 -0.259734 0.154709 -0.23605 
0.450104 0.647032 -0.0805075 0.610143 
0.534237 0.113027 0.383806 -0.744653 
0.933086 -0.322503 -0.140179 -0.0754489 
0.539906 0.0259458 -0.643633 0.541816 
-0.918548 0.326074 -0.213781 0.0651368 
-0.287554 0.399436 -0.613736 0.617325 
-0.0181464 0.903972 0.350216 -0.244649 
-0.959752 0.0888234 -0.11935 0.238206 
-0.0518916 0.878148 0.466088 -0.0944785 
0.601046 -0.583094 0.364324 -0.407447 
-0.187361 0.787297 0.304417 0.502384 
-0.0306377 -0.530596 0.833674 -0.150055 
0.75724 -0.183031 0.620563 -0.0893797 
0.703243 -0.298992 -0.23621 0.600214 
-0.085602 0.285525 0.873134 0.385727 
-0.25108 0.39028 0.316144 0.827462 
-0.342363 -0.104725 -0.890501 -0.280763 
0.432769 0.799465 0.186454 0.37256 
0.121442 -0.312041 -0.698245 0.632721 
0.955112 -0.192573 -0.186098 0.126669 
0.81944 -0.49937 -0.119585 0.254652 
-0.280581 0.685281 0.448516 0.500498 
-0.550889 0.592401 0.425659 0.405458 
0.584477 0.740633 0.0608155 0.325807 
0.504136 -0.109422 0.856398 0.0213774 
0.391131 0.749979 -0.111917 0.521558 
0.569519 -0.184345 -0.24065 -0.764037 
0.693227 -0.629654 -0.34141 -0.0800773 
0.840701 0.321338 -0.241793 -0.362629 
0.808333 -0.549843 -0.161772 -0.134536 
0.639044 -0.274154 0.704361 -0.142611 
0.862977 0.0623429 0.226028 0.447543 
0.256876 -0.872033 0.366118 -0.198822 
0.987973 0.0919066 0.122877 -0.019101 
0.866421 -0.0943384 0.0524579 -0.487506 
-0.523612 -0.321449 -0.232523 -0.753945 
-0.345109 0.174424 -0.435397 0.812961 
0.155407 0.301249 -0.919919 0.197094 
0.0915538 0.376189 0.760299 0.52158 
0.891698 -0.29505 0.0243808 0.342383 
0.679113 -0.293006 0.653251 -0.161913 
0.80883 -0.540235 -0.10404 -0.207643 
0.41108 0.779184 -0.219748 0.419042 
0.144109 0.75364 0.563573 -0.306014 
0.784512 0.311275 0.499093 0.196353 
0.211104 -0.702481 0.475468 -0.48568 
-0.458023 0.27367 -0.168256 0.828861 
0.763543 -0.421875 0.0908787 0.48038 
0.714815 -0.397265 -0.571024 0.0717802 
0.755689 0.487062 0.420681 0.121379 
-0.222331 0.844329 -0.281614 0.397959 
0.595183 -0.351239 -0.443189 -0.570939 
0.15193 0.891899 0.335697 -0.262186 
0.873969 0.113034 0.188618 0.433388 
0.819416 0.527547 -0.125504 0.185742 
-0.0819355 -0.472326 0.596762 -0.643483 
0.832208 -0.0692417 0.538871 -0.110693 
0.442758 0.863689 0.0585514 0.233619 
0.586208 0.721405 0.361435 0.0727977 
-0.055528 0.46173 -0.883028 0.0631171 
-0.319227 0.333222 0.729274 0.50519 
0.0216731 -0.814889 0.579211 0.000341216 
-0.177351 0.412928 -0.859143 0.244765 
0.286936 -0.528994 -0.788249 0.128443 
0.836727 -0.00130509 0.488461 0.247571 
-0.642343 0.47236 0.430605 -0.422908 
0.904364 -0.395114 -0.0148215 -0.160593 
0.67635 0.506368 0.516956 -0.137468 
-0.0969404 0.35786 0.21344 0.903871 
0.898871 0.287795 0.194713 0.267004 
0.502208 -0.281264 0.613228 0.540952 
0.773842 -0.00861223 -0.540103 0.33073 
-0.136854 0.849412 0.347763 0.3726 
0.527622 0.787445 0.257611 0.18757 
-0.0334429 -0.575661 0.153228 -0.802507 
-0.567942 -0.218523 -0.199765 -0.767974 
0.893387 -0.310536 -0.188127 0.264641 
0.86764 0.421724 0.215977 0.150675 
0.361102 -0.621594 0.691534 0.0707566 
0.92901 -0.363876 0.065861 0.014053 
0.452033 -0.109643 0.821677 0.32938 
0.81613 0.0964462 0.0638605 0.566173 
0.151545 -0.488827 0.765888 0.389227 
0.998492 -0.0462102 0.0182374 0.0233751 
0.812502 0.282231 -0.466274 0.206821 
0.188203 -0.705747 0.660708 -0.17311 
-0.768548 0.312296 0.532576 0.167833 
0.248238 -0.5442 -0.741044 0.305088 
0.822862 0.181253 -0.537073 -0.0399848 
0.542741 -0.156133 0.622881 -0.541364 
-0.371603 0.516018 0.626552 0.450632 
-0.632201 0.749983 0.0617774 0.184477 
-0.263789 -0.0526666 0.546997 0.79274 
-0.164388 0.423133 0.0666801 0.888532 
0.829688 0.322857 0.282105 0.357489 
-0.394571 -0.864168 0.0734295 0.30354 
0.143106 0.26739 0.629022 -0.71579 
-0.200867 0.824412 0.462735 0.256658 
0.866218 0.176141 -0.05591 0.464237 
0.708378 -0.684426 -0.114315 0.129205 
-0.082357 -0.257488 -0.962757 -0.00389708 
0.62021 -0.51707 -0.183588 0.560601 
0.692141 0.318529 0.364263 0.535531 
-0.150722 0.311666 0.936984 0.0470002 
0.937416 0.340618 -0.0713394 -0.011866 
0.317875 0.425545 0.409378 0.741806 
0.626987 0.134115 -0.280298 0.714376 
0.906972 -0.386371 0.160468 -0.0486771 
0.389896 0.886973 0.244782 0.0366228 
-0.205301 0.8218 0.17287 -0.502606 
0.612849 -0.283362 -0.619338 -0.400678 
0.756438 0.050652 -0.23832 0.606992 
-0.362011 -0.267323 0.720266 -0.527923 
0.027455 -0.978231 -0.205366 -0.0116343 
0.930652 -0.0551899 -0.327099 0.154426 
-0.0427822 0.983792 -0.174018 0.0063517 
-0.140147 -0.0748024 0.794395 -0.58626 
0.123879 0.237465 -0.467267 0.842571 
0.13736 0.371086 0.0506711 0.916984 
0.832116 0.0889156 0.245985 0.489048 
-0.956042 0.213551 -0.0447011 0.195911 
0.663639 -0.0321806 0.46324 -0.586477 
0.92408 0.344255 0.112953 0.121684 
0.754136 0.414064 -0.147254 0.488002 
0.689207 -0.366671 -0.480242 -0.399893 
0.332959 0.599814 -0.461129 -0.56278 
0.761495 0.390958 0.00382993 -0.516975 
-0.830365 -0.508008 -0.228784 -0.00887706 
-0.780183 0.0452862 -0.617361 0.0901623 
0.999951 0.00931562 0.00314909 -0.000657659 
0.142544 -0.087966 0.455471 0.874351 
0.625357 -0.495586 0.478204 0.366939 
-0.862495 -0.345759 -0.319453 -0.185749 
0.844491 -0.335829 0.322188 -0.265046 
0.792965 -0.536213 -0.0202046 0.288573 
-0.600919 0.186954 -0.741473 -0.232729 
-0.342197 0.883827 0.262906 -0.180642 
0.63843 0.395403 -0.134545 0.646499 
0.568117 0.143092 0.78498 0.201429 
-0.0185469 0.652202 0.667976 -0.357907 
0.351576 -0.181263 0.382318 0.835087 
-0.0117635 -0.367345 0.893068 -0.259516 
-0.54373 0.336853 -0.461854 -0.614474 
-0.128829 0.727059 0.424844 0.523733 
0.888293 0.187472 0.328612 0.260394 