# vtk DataFile Version 2.0
Generated by NetDEM
ASCII 
DATASET POLYDATA
POINTS 500 double
-0.419095 -0.40839 -0.464155 
-0.44998 -0.193302 -0.450025 
-0.404522 -0.0128418 -0.460392 
-0.450037 0.107905 -0.450033 
-0.436274 0.350443 -0.45004 
-0.271188 -0.429839 -0.459059 
-0.302839 -0.223363 -0.45002 
-0.190706 -0.0105116 -0.450057 
-0.171833 0.174557 -0.463989 
-0.255583 0.367022 -0.463638 
-0.0553753 -0.397071 -0.461213 
-0.147632 -0.133533 -0.450035 
-0.0547653 -0.0943965 -0.450025 
0.0385095 0.180217 -0.453045 
-0.0288728 0.319108 -0.443412 
0.193072 -0.401645 -0.463063 
0.169682 -0.210197 -0.463376 
0.172557 -0.00381875 -0.462529 
0.161564 0.206558 -0.465029 
0.297141 0.403835 -0.418961 
0.450007 -0.41021 -0.450025 
0.432647 -0.298595 -0.450008 
0.340053 -0.0115324 -0.450008 
0.375928 0.0845239 -0.45001 
0.372232 0.440503 -0.464898 
-0.431329 -0.411292 -0.394139 
-0.449968 -0.272114 -0.388481 
-0.407131 -0.0164925 -0.389156 
-0.445094 0.176846 -0.377704 
-0.449976 0.449476 -0.450085 
-0.337075 -0.406681 -0.407901 
-0.245922 -0.143215 -0.431674 
-0.158483 -0.10075 -0.214397 
-0.304979 0.165064 -0.464906 
-0.152 0.405331 -0.452703 
-0.0898471 -0.390246 -0.397966 
0.308591 -0.247667 -0.137071 
-0.0457937 -0.0174368 -0.312079 
0.0302913 0.259783 -0.451368 
0.123912 0.302323 -0.432604 
0.201729 -0.414592 -0.390648 
0.167207 -0.206571 -0.390317 
0.175413 0.0174985 -0.386417 
0.19698 0.113465 -0.455059 
0.286232 0.367995 -0.326252 
0.380318 -0.450007 -0.390377 
0.435387 -0.355335 -0.367715 
0.275413 -0.211309 -0.450022 
0.450001 0.141275 -0.412581 
0.426156 0.341785 -0.456343 
-0.436245 -0.441129 -0.326129 
-0.310602 -0.215051 -0.350676 
-0.302036 -0.00989107 -0.435326 
-0.288586 0.271789 -0.450016 
-0.450018 0.276625 -0.384069 
-0.182965 -0.371236 -0.451721 
0.184526 -0.337171 -0.303332 
-0.239724 -0.0537184 -0.179938 
-0.17223 0.0780527 -0.450451 
-0.350582 0.332737 -0.337295 
0.0445992 -0.438671 -0.449868 
0.205688 -0.284449 -0.161324 
0.204734 0.0590175 -0.214097 
-0.0394632 0.223733 -0.395233 
0.254534 0.331521 -0.463936 
0.194446 -0.435425 -0.319581 
0.0526424 -0.0970262 -0.450727 
0.160868 0.0625259 -0.332533 
0.2701 0.0646421 -0.441814 
0.112522 0.138002 -0.397023 
0.286699 -0.448567 -0.450007 
0.376746 -0.214736 -0.450155 
0.378794 -0.109977 -0.450041 
0.449988 0.230361 -0.365461 
0.43759 0.25706 -0.459902 
-0.432971 -0.452931 -0.243303 
-0.175679 -0.159001 -0.357517 
-0.237429 -0.00413496 -0.352868 
-0.267269 0.0885573 -0.405672 
-0.352179 0.143905 -0.353868 
-0.162819 -0.449347 -0.395588 
-0.125355 -0.0566512 -0.390091 
-0.240066 0.0472742 -0.22705 
-0.0549185 0.129508 -0.445921 
-0.356493 0.381887 -0.406436 
0.0884035 -0.451261 -0.354947 
0.446115 -0.337821 -0.0845827 
-0.188301 -0.23684 -0.45001 
0.0165825 0.047576 -0.450331 
0.0677792 0.398447 -0.411364 
0.259625 -0.445831 -0.246087 
0.152499 -0.319127 -0.401131 
0.118563 0.0691144 -0.272857 
0.265903 0.174345 -0.442204 
0.14274 0.450015 -0.450009 
0.347251 -0.308165 -0.365167 
0.450005 -0.105639 -0.38001 
0.387545 0.156722 -0.333218 
0.331651 0.31019 -0.412154 
0.438525 0.371528 -0.376951 
-0.386205 -0.439642 -0.170324 
-0.368643 -0.359216 -0.121767 
-0.294635 -0.0411972 -0.276411 
-0.364376 0.0678755 -0.417648 
-0.449527 0.431298 -0.351731 
-0.270322 -0.4407 -0.362827 
-0.0625057 -0.159685 -0.374691 
-0.247952 0.0390466 -0.127715 
-0.00252018 -0.0248814 -0.397951 
-0.423944 0.2429 -0.463864 
0.0831795 -0.341892 -0.440786 
0.355161 -0.211427 -0.0563323 
0.0409542 -0.120654 -0.352474 
0.0259895 0.0412597 -0.355439 
-0.00318012 0.435579 -0.464045 
0.301518 -0.386063 -0.218676 
0.259269 -0.315433 -0.423949 
0.0364853 0.0686499 -0.263262 
0.250036 0.244137 -0.38199 
0.347938 0.449831 -0.273457 
0.318388 -0.39957 -0.330116 
0.45016 -0.207856 -0.382855 
0.45 -0.0296725 -0.450007 
0.343342 0.211149 -0.404522 
0.399515 0.452521 -0.374345 
-0.46217 -0.451807 -0.126718 
-0.32052 -0.13999 -0.285051 
-0.451193 -0.0289422 -0.32158 
-0.2523 0.191733 -0.39481 
-0.304142 0.450007 -0.364833 
-0.166569 -0.374147 -0.340988 
-0.0844818 -0.221651 -0.450024 
-0.196911 -0.162253 -0.145547 
-0.133859 0.149439 -0.397592 
-0.228105 0.33498 -0.394126 
-0.0909625 -0.309504 -0.451227 
0.285617 -0.320318 -0.0722149 
0.449927 0.052759 -0.162684 
0.0417678 0.121637 -0.332744 
-0.117597 0.312815 -0.411194 
0.156833 -0.438092 -0.239737 
0.24019 -0.140473 -0.394557 
0.108101 -0.0223937 -0.225569 
0.196044 0.306805 -0.340119 
0.199886 0.385769 -0.397807 
0.450001 -0.44159 -0.319156 
0.331696 -0.173088 -0.37108 
0.251039 -0.0595925 -0.450026 
0.447526 0.0496105 -0.372689 
0.44069 0.40934 -0.300489 
-0.438462 -0.457917 -0.0119418 
-0.226953 -0.173058 -0.27284 
-0.423099 -0.11148 -0.40719 
-0.20671 0.270382 -0.335141 
-0.338419 0.241825 -0.36867 
-0.142233 -0.291222 -0.371528 
0.129257 -0.45001 -0.0939376 
-0.304079 0.367638 -0.188176 
-0.105128 0.275257 -0.329857 
-0.222091 0.461598 -0.451547 
-0.00145334 -0.339074 -0.366041 
0.115711 -0.241359 -0.15413 
-0.179625 -0.0702014 -0.307219 
0.017421 0.200365 -0.304529 
0.0139996 0.295262 -0.350693 
0.0748689 -0.409201 -0.27389 
0.137284 -0.0979822 -0.400643 
0.255979 -0.116837 -0.265851 
0.234303 0.185387 -0.326431 
0.138229 0.448405 -0.350117 
0.386281 -0.229746 -0.309244 
0.3441 -0.0668171 -0.36678 
0.320474 0.0546562 -0.372343 
0.405146 0.301498 -0.310404 
0.447097 0.378123 -0.215716 
-0.3268 -0.446217 -0.090854 
-0.449455 -0.0991267 -0.26731 
-0.358503 0.0110068 -0.248604 
-0.448706 0.0695131 -0.357701 
-0.415762 0.264135 -0.29101 
-0.265121 -0.310761 -0.44623 
-0.181822 -0.275756 -0.259914 
-0.143014 0.400349 -0.0836381 
-0.124111 0.190256 -0.334787 
-0.138698 0.441651 -0.354209 
0.00236544 -0.434776 -0.356584 
0.0159537 -0.0951438 -0.259082 
0.0156183 -0.224866 -0.450007 
-0.0255319 0.270929 -0.251023 
-0.00518534 0.409393 -0.370232 
0.0722821 -0.425643 -0.172355 
0.0990871 -0.0408737 -0.332233 
0.284644 -0.160626 -0.189474 
0.20225 0.135494 -0.272717 
0.248433 0.45001 -0.283299 
0.449642 -0.308987 -0.280259 
0.45001 -0.148713 -0.28978 
0.364861 0.0382807 -0.284264 
0.319208 0.250473 -0.307605 
0.383811 0.428023 -0.198008 
-0.246236 -0.444474 -0.163524 
-0.443662 0.231779 -0.200645 
-0.292731 0.187783 -0.187771 
-0.189444 0.0766422 -0.343193 
-0.371963 0.449749 -0.291412 
-0.228123 -0.348819 -0.244328 
-0.0435902 -0.259409 -0.314749 
0.0161806 -0.242261 -0.23644 
-0.156473 0.117093 -0.255688 
-0.166387 0.350585 -0.329878 
-0.0449568 -0.384951 -0.293192 
-0.188076 -0.0963061 0.172181 
-0.0294674 0.20606 -0.169399 
-0.0526607 0.102174 -0.331213 
0.104418 0.356122 -0.334087 
0.262877 -0.43799 -0.142955 
0.219755 -0.196712 -0.31164 
0.292206 -0.106847 -0.125565 
0.149855 0.225533 -0.292656 
0.194345 0.363032 -0.263763 
0.407861 -0.391964 -0.243261 
0.441424 -0.225311 -0.226008 
0.434033 -0.0319653 -0.314318 
0.30354 0.116585 -0.294747 
0.409063 0.403264 -0.125212 
-0.25672 -0.33376 -0.152981 
-0.417333 -0.334438 -0.317414 
-0.432464 0.336146 -0.135551 
-0.342451 0.324206 -0.0684506 
-0.448751 0.423737 -0.012577 
-0.142115 -0.419203 -0.256857 
-0.0511222 0.137926 -0.0697382 
-0.259571 -0.17508 -0.0299958 
-0.182718 0.176472 -0.187537 
-0.158836 0.33889 -0.222495 
-0.0641587 -0.383744 -0.208141 
-0.138997 -0.141098 -0.0208052 
-0.111378 -0.0237558 -0.171348 
-0.00730724 0.109978 -0.198404 
0.0263491 0.447461 -0.279062 
0.29774 -0.328966 -0.172309 
0.249405 -0.29167 -0.341497 
0.349675 -0.0528275 -0.0744521 
0.152903 0.275816 -0.226202 
0.208765 0.404831 -0.140038 
0.357835 -0.450026 -0.1723 
0.450009 -0.199323 -0.0855919 
0.337539 0.129274 -0.0112071 
0.449989 0.151782 -0.178872 
0.424941 0.386364 -0.0446921 
-0.296422 -0.320843 -0.348242 
-0.120057 -0.201648 -0.286209 
-0.326636 -0.0162069 -0.147769 
-0.220283 0.200497 -0.264861 
-0.421773 0.445599 -0.204822 
-0.249647 -0.43003 -0.272323 
0.0942196 -0.280753 -0.3085 
-0.307595 0.256811 -0.13382 
-0.246076 0.300377 -0.209838 
-0.149448 0.442487 -0.246781 
0.0146522 -0.380739 -0.165801 
0.450024 -0.390521 0.000258269 
0.076498 0.438241 -0.188534 
-0.0745055 0.406128 -0.32343 
-0.0396118 0.447834 -0.22023 
0.355816 -0.394979 -0.0927915 
0.372641 -0.0984688 -0.174081 
0.191807 -0.0247394 -0.290824 
0.219567 0.20078 -0.205751 
0.0883427 0.244228 -0.367529 
0.353948 -0.303877 -0.25017 
0.348399 -0.152215 -0.258883 
0.450016 0.0835186 -0.25782 
0.449478 0.213638 -0.266887 
0.407775 0.451201 -0.0207176 
-0.339312 -0.393907 0.00917824 
-0.138522 -0.345394 -0.152793 
-0.434793 -0.111934 -0.183344 
-0.450005 0.094895 -0.176337 
-0.344359 0.19745 -0.269758 
-0.146374 -0.444098 -0.172443 
-0.0657015 -0.283039 -0.191212 
-0.227518 0.44998 -0.300594 
-0.282569 0.309854 -0.282627 
-0.225653 0.43539 -0.180726 
0.0403208 -0.406688 -0.0801152 
-0.115492 0.450004 0.117874 
0.0343909 0.182744 -0.0960687 
-0.0728338 0.307009 -0.201643 
0.00751585 0.366245 -0.195509 
0.271442 -0.415887 -0.0334339 
0.0288025 -0.0926398 -0.0140903 
0.145228 -0.0391782 -0.141669 
0.287362 0.173858 -0.149865 
0.0652145 0.259766 -0.160836 
0.400869 -0.282936 -0.154812 
0.449968 -0.143536 -0.168708 
0.330646 -0.0542076 -0.267506 
0.450004 0.278325 -0.190639 
0.301225 0.414349 -0.0854242 
-0.290948 -0.353029 -0.0623284 
-0.420943 -8.98214e-05 -0.187876 
-0.394248 -0.293655 -0.069955 
-0.429725 0.137461 -0.286831 
-0.450019 0.450017 -0.109055 
-0.158903 -0.424587 -0.0723704 
-0.134845 -0.318644 -0.0564272 
-0.281349 0.0914275 -0.306696 
-0.134473 0.276694 -0.111764 
-0.247709 0.383024 -0.101085 
-0.0224869 -0.425576 -0.017598 
-0.407704 -0.173985 -0.320259 
0.0066952 -0.00224961 -0.223177 
-0.0414411 0.289418 -0.0970059 
-0.00938952 0.443831 -0.131556 
0.151084 -0.388278 -0.0156021 
0.4502 0.00326449 0.0139109 
0.0755862 -0.027922 -0.0757124 
0.301399 0.337435 -0.216142 
0.283283 0.449526 -0.189507 
0.373197 -0.449991 -0.0237453 
0.437581 -0.0491385 0.086412 
0.246201 -0.0548475 -0.350272 
0.346454 0.255135 -0.19941 
0.438644 0.451943 0.0717064 
-0.350961 -0.21431 -0.0122522 
-0.390932 -0.273384 -0.17115 
-0.415056 0.101791 -0.0961624 
-0.388421 0.319747 -0.212526 
-0.45 0.36193 -0.279714 
-0.173342 -0.435394 0.0469006 
-0.0598015 -0.150686 -0.224814 
-0.223421 0.292843 -0.0936664 
-0.101313 0.387887 -0.169999 
-0.0744512 0.439019 -0.0502935 
-0.0917864 -0.448731 0.0247629 
0.0805781 -0.165984 -0.230667 
-0.0707388 0.0659013 -0.136288 
0.0359377 0.249469 -0.037526 
0.00770735 0.423373 -0.059459 
0.137975 -0.340519 -0.108143 
0.178224 -0.18992 -0.22704 
0.125327 0.150246 -0.188561 
0.313651 0.221033 -0.0664814 
0.170516 0.450011 -0.220614 
0.450003 -0.416883 -0.152102 
0.319337 -0.265625 0.0196786 
0.410709 -0.0209701 -0.217667 
0.368392 0.164377 -0.235294 
0.416496 0.272346 0.167653 
-0.420202 -0.380069 0.0560058 
-0.449995 -0.216882 -0.240447 
-0.365407 0.218867 -0.0824684 
-0.44768 0.0620539 -0.00530161 
-0.450061 0.193516 -0.108355 
-0.224716 -0.379747 -0.00285536 
-0.277579 -0.108504 -0.102389 
-0.32398 -0.106461 -0.190928 
-0.19084 0.356002 -0.00225936 
-0.133512 0.400378 0.0225758 
0.0388631 -0.18801 -0.129497 
-0.150765 -0.249251 -0.128165 
0.22017 0.132123 -0.0936754 
0.106367 0.3192 -0.0543796 
-0.0217774 0.439638 0.0317439 
0.0788068 -0.21597 -0.0223389 
0.454067 -0.069252 -0.111209 
0.28166 0.063233 -0.029886 
0.188368 0.225378 -0.119157 
0.102918 0.335106 0.073756 
0.397867 -0.0802794 -0.000801355 
0.449654 -0.268557 -0.0124941 
0.364951 0.010415 -0.131272 
0.426818 0.112541 -0.0859561 
0.325153 0.316676 -0.119464 
-0.427585 -0.181995 -0.134485 
-0.450004 -0.238306 -0.0331684 
-0.398078 -0.00669583 -0.0927686 
-0.449998 0.281544 0.0534818 
-0.341432 0.449969 -0.14545 
-0.238136 -0.30225 0.0621 
-0.27388 -0.273412 -0.0184045 
-0.325775 0.0656107 -0.0520678 
-0.119648 0.21853 -0.0442666 
-0.12473 0.191419 0.0267886 
0.0268148 -0.311513 -0.0160208 
-0.120398 -0.105705 -0.114758 
0.108999 0.113741 -0.0978704 
-0.156745 0.104687 -0.126662 
0.0422565 0.407109 0.110517 
0.0404285 -0.291689 -0.147559 
0.283291 -0.0745016 -0.0156142 
0.266082 0.0233396 -0.101879 
0.185596 0.2829 -0.0397482 
0.145676 0.329167 -0.157485 
0.327518 -0.34269 0.0828672 
0.257265 -0.179419 -0.0728463 
0.41653 0.189467 -0.0229137 
0.407075 0.237733 -0.109973 
0.436896 0.281209 -0.022454 
-0.335939 -0.343853 0.0920504 
-0.337471 -0.229236 -0.243219 
-0.44834 -0.0617764 -0.0230992 
-0.449877 0.130401 0.0691439 
-0.278927 0.36744 -0.00446789 
-0.0635731 -0.182561 -0.139256 
-0.177869 -0.232929 -0.0281432 
-0.235087 -0.00120212 -0.0370951 
-0.285401 0.219181 -0.0145632 
-0.204343 0.412612 0.0870395 
0.208096 -0.059598 -0.0987406 
0.000995815 -0.081444 -0.161135 
-0.137742 -0.0326088 0.113803 
-0.0272901 0.245642 0.0321541 
-0.0728627 0.345711 0.0694656 
0.314945 -0.441203 0.0674152 
0.329981 -0.210657 0.104228 
0.176151 0.0389406 -0.129086 
0.2641 0.287405 0.00650716 
0.239469 0.449996 -0.0142364 
0.44883 -0.166591 0.00888346 
0.316279 0.36178 -0.00654759 
0.450002 0.088543 0.00830608 
0.432002 0.163214 0.0723214 
0.383847 0.36506 0.0649316 
-0.401955 -0.393352 0.144326 
-0.431287 -0.264859 0.0614001 
-0.195887 -0.0699644 -0.0745599 
-0.44105 0.272076 -0.0471014 
-0.387435 0.350557 0.0170817 
-0.209863 -0.392507 0.098002 
-0.253849 -0.00978985 0.112836 
-0.0425366 -0.0150886 -0.0848507 
-0.27672 0.136685 -0.103528 
-0.286387 0.397889 0.155409 
0.188901 -0.434772 0.0544519 
0.118112 -0.136208 -0.140348 
0.0306502 0.0535413 -0.118271 
-0.0886665 0.108429 0.0673058 
-0.0416437 0.408055 0.155575 
0.310337 -0.415002 0.162328 
0.203747 -0.1163 -0.00309857 
0.0981079 0.191193 -0.00254196 
0.266903 0.170146 0.141626 
0.154764 0.418171 -0.056884 
0.412485 -0.450022 0.0712869 
0.332802 -0.161323 0.027294 
-0.212183 0.104127 -0.0494962 
0.361982 0.210927 0.125417 
0.318345 0.448394 0.0571189 
-0.441691 -0.45037 0.176033 
-0.27679 0.0513131 0.0370768 
-0.393983 -0.000584957 0.0354778 
-0.417154 0.155823 -0.0218658 
-0.450004 0.417093 0.087232 
-0.295917 -0.447615 0.0670915 
-0.237666 -0.15344 0.0651365 
-0.17151 0.0321523 0.0324993 
-0.338842 0.126298 0.0384957 
-0.429818 0.404466 0.189251 
0.238427 -0.249219 0.119287 
-0.0464977 -0.1448 -0.0586069 
-0.0901761 0.0621048 -0.0175561 
0.0226629 0.334101 0.014362 
0.0118047 0.304489 0.103973 
0.190395 -0.246485 -0.0735054 
0.213317 -0.294107 0.0295159 
0.190127 -0.0109591 -0.0236287 
0.191645 0.170826 -0.000411236 
0.0801067 0.425943 0.00912462 
0.426513 -0.353276 0.0922927 
0.449971 -0.146251 0.106781 
0.34544 0.00694579 0.018116 
0.271452 0.167121 0.0535991 
0.451275 0.353363 0.116778 
-0.312215 -0.31006 0.15588 
-0.202806 -0.0621636 0.0436686 
-0.438099 -0.00808042 0.139926 
-0.371763 0.220729 0.0392424 
-0.361025 0.449974 0.118868 
-0.175758 -0.241352 0.0705442 
-0.192956 -0.192806 0.145451 
-0.0871441 -0.0269703 0.0277493 
-0.308755 0.309042 0.0687375 
-0.216288 0.237813 0.0572752 
-0.0476772 -0.117053 0.0379053 
-0.0172559 -0.254908 -0.0784501 
0.0182069 0.00266964 -0.00743591 
0.234221 -0.158419 0.066842 
0.0124647 0.448221 0.219453 
0.214578 -0.368465 0.116087 
0.445532 -0.294373 0.159653 
0.306975 0.0629461 0.0945837 
0.178635 0.248295 0.0615668 
0.183587 0.366164 0.0235007 
0.406508 -0.408332 0.173331 
0.44897 -0.2022 0.189654 
0.324469 -0.0719687 0.0773083 
0.398988 0.0915981 0.133803 
0.231744 0.424537 0.0968185 
VERTICES 500 1000
1 0
1 1
1 2
1 3
1 4
1 5
1 6
1 7
1 8
1 9
1 10
1 11
1 12
1 13
1 14
1 15
1 16
1 17
1 18
1 19
1 20
1 21
1 22
1 23
1 24
1 25
1 26
1 27
1 28
1 29
1 30
1 31
1 32
1 33
1 34
1 35
1 36
1 37
1 38
1 39
1 40
1 41
1 42
1 43
1 44
1 45
1 46
1 47
1 48
1 49
1 50
1 51
1 52
1 53
1 54
1 55
1 56
1 57
1 58
1 59
1 60
1 61
1 62
1 63
1 64
1 65
1 66
1 67
1 68
1 69
1 70
1 71
1 72
1 73
1 74
1 75
1 76
1 77
1 78
1 79
1 80
1 81
1 82
1 83
1 84
1 85
1 86
1 87
1 88
1 89
1 90
1 91
1 92
1 93
1 94
1 95
1 96
1 97
1 98
1 99
1 100
1 101
1 102
1 103
1 104
1 105
1 106
1 107
1 108
1 109
1 110
1 111
1 112
1 113
1 114
1 115
1 116
1 117
1 118
1 119
1 120
1 121
1 122
1 123
1 124
1 125
1 126
1 127
1 128
1 129
1 130
1 131
1 132
1 133
1 134
1 135
1 136
1 137
1 138
1 139
1 140
1 141
1 142
1 143
1 144
1 145
1 146
1 147
1 148
1 149
1 150
1 151
1 152
1 153
1 154
1 155
1 156
1 157
1 158
1 159
1 160
1 161
1 162
1 163
1 164
1 165
1 166
1 167
1 168
1 169
1 170
1 171
1 172
1 173
1 174
1 175
1 176
1 177
1 178
1 179
1 180
1 181
1 182
1 183
1 184
1 185
1 186
1 187
1 188
1 189
1 190
1 191
1 192
1 193
1 194
1 195
1 196
1 197
1 198
1 199
1 200
1 201
1 202
1 203
1 204
1 205
1 206
1 207
1 208
1 209
1 210
1 211
1 212
1 213
1 214
1 215
1 216
1 217
1 218
1 219
1 220
1 221
1 222
1 223
1 224
1 225
1 226
1 227
1 228
1 229
1 230
1 231
1 232
1 233
1 234
1 235
1 236
1 237
1 238
1 239
1 240
1 241
1 242
1 243
1 244
1 245
1 246
1 247
1 248
1 249
1 250
1 251
1 252
1 253
1 254
1 255
1 256
1 257
1 258
1 259
1 260
1 261
1 262
1 263
1 264
1 265
1 266
1 267
1 268
1 269
1 270
1 271
1 272
1 273
1 274
1 275
1 276
1 277
1 278
1 279
1 280
1 281
1 282
1 283
1 284
1 285
1 286
1 287
1 288
1 289
1 290
1 291
1 292
1 293
1 294
1 295
1 296
1 297
1 298
1 299
1 300
1 301
1 302
1 303
1 304
1 305
1 306
1 307
1 308
1 309
1 310
1 311
1 312
1 313
1 314
1 315
1 316
1 317
1 318
1 319
1 320
1 321
1 322
1 323
1 324
1 325
1 326
1 327
1 328
1 329
1 330
1 331
1 332
1 333
1 334
1 335
1 336
1 337
1 338
1 339
1 340
1 341
1 342
1 343
1 344
1 345
1 346
1 347
1 348
1 349
1 350
1 351
1 352
1 353
1 354
1 355
1 356
1 357
1 358
1 359
1 360
1 361
1 362
1 363
1 364
1 365
1 366
1 367
1 368
1 369
1 370
1 371
1 372
1 373
1 374
1 375
1 376
1 377
1 378
1 379
1 380
1 381
1 382
1 383
1 384
1 385
1 386
1 387
1 388
1 389
1 390
1 391
1 392
1 393
1 394
1 395
1 396
1 397
1 398
1 399
1 400
1 401
1 402
1 403
1 404
1 405
1 406
1 407
1 408
1 409
1 410
1 411
1 412
1 413
1 414
1 415
1 416
1 417
1 418
1 419
1 420
1 421
1 422
1 423
1 424
1 425
1 426
1 427
1 428
1 429
1 430
1 431
1 432
1 433
1 434
1 435
1 436
1 437
1 438
1 439
1 440
1 441
1 442
1 443
1 444
1 445
1 446
1 447
1 448
1 449
1 450
1 451
1 452
1 453
1 454
1 455
1 456
1 457
1 458
1 459
1 460
1 461
1 462
1 463
1 464
1 465
1 466
1 467
1 468
1 469
1 470
1 471
1 472
1 473
1 474
1 475
1 476
1 477
1 478
1 479
1 480
1 481
1 482
1 483
1 484
1 485
1 486
1 487
1 488
1 489
1 490
1 491
1 492
1 493
1 494
1 495
1 496
1 497
1 498
1 499
POINT_DATA 500
SCALARS id int 1
LOOKUP_TABLE default
0
1
2
3
4
5
6
7
8
9
10
11
12
13
14
15
16
17
18
19
20
21
22
23
24
25
26
27
28
29
30
31
32
33
34
35
36
37
38
39
40
41
42
43
44
45
46
47
48
49
50
51
52
53
54
55
56
57
58
59
60
61
62
63
64
65
66
67
68
69
70
71
72
73
74
75
76
77
78
79
80
81
82
83
84
85
86
87
88
89
90
91
92
93
94
95
96
97
98
99
100
101
102
103
104
105
106
107
108
109
110
111
112
113
114
115
116
117
118
119
120
121
122
123
124
125
126
127
128
129
130
131
132
133
134
135
136
137
138
139
140
141
142
143
144
145
146
147
148
149
150
151
152
153
154
155
156
157
158
159
160
161
162
163
164
165
166
167
168
169
170
171
172
173
174
175
176
177
178
179
180
181
182
183
184
185
186
187
188
189
190
191
192
193
194
195
196
197
198
199
200
201
202
203
204
205
206
207
208
209
210
211
212
213
214
215
216
217
218
219
220
221
222
223
224
225
226
227
228
229
230
231
232
233
234
235
236
237
238
239
240
241
242
243
244
245
246
247
248
249
250
251
252
253
254
255
256
257
258
259
260
261
262
263
264
265
266
267
268
269
270
271
272
273
274
275
276
277
278
279
280
281
282
283
284
285
286
287
288
289
290
291
292
293
294
295
296
297
298
299
300
301
302
303
304
305
306
307
308
309
310
311
312
313
314
315
316
317
318
319
320
321
322
323
324
325
326
327
328
329
330
331
332
333
334
335
336
337
338
339
340
341
342
343
344
345
346
347
348
349
350
351
352
353
354
355
356
357
358
359
360
361
362
363
364
365
366
367
368
369
370
371
372
373
374
375
376
377
378
379
380
381
382
383
384
385
386
387
388
389
390
391
392
393
394
395
396
397
398
399
400
401
402
403
404
405
406
407
408
409
410
411
412
413
414
415
416
417
418
419
420
421
422
423
424
425
426
427
428
429
430
431
432
433
434
435
436
437
438
439
440
441
442
443
444
445
446
447
448
449
450
451
452
453
454
455
456
457
458
459
460
461
462
463
464
465
466
467
468
469
470
471
472
473
474
475
476
477
478
479
480
481
482
483
484
485
486
487
488
489
490
491
492
493
494
495
496
497
498
499
SCALARS type int 1
LOOKUP_TABLE default
0
0
0
0
0
0
0
0
0
0
0
0
0
0
0
0
0
0
0
0
0
0
0
0
0
0
0
0
0
0
0
0
0
0
0
0
0
0
0
0
0
0
0
0
0
0
0
0
0
0
0
0
0
0
0
0
0
0
0
0
0
0
0
0
0
0
0
0
0
0
0
0
0
0
0
0
0
0
0
0
0
0
0
0
0
0
0
0
0
0
0
0
0
0
0
0
0
0
0
0
0
0
0
0
0
0
0
0
0
0
0
0
0
0
0
0
0
0
0
0
0
0
0
0
0
0
0
0
0
0
0
0
0
0
0
0
0
0
0
0
0
0
0
0
0
0
0
0
0
0
0
0
0
0
0
0
0
0
0
0
0
0
0
0
0
0
0
0
0
0
0
0
0
0
0
0
0
0
0
0
0
0
0
0
0
0
0
0
0
0
0
0
0
0
0
0
0
0
0
0
0
0
0
0
0
0
0
0
0
0
0
0
0
0
0
0
0
0
0
0
0
0
0
0
0
0
0
0
0
0
0
0
0
0
0
0
0
0
0
0
0
0
0
0
0
0
0
0
0
0
0
0
0
0
0
0
0
0
0
0
0
0
0
0
0
0
0
0
0
0
0
0
0
0
0
0
0
0
0
0
0
0
0
0
0
0
0
0
0
0
0
0
0
0
0
0
0
0
0
0
0
0
0
0
0
0
0
0
0
0
0
0
0
0
0
0
0
0
0
0
0
0
0
0
0
0
0
0
0
0
0
0
0
0
0
0
0
0
0
0
0
0
0
0
0
0
0
0
0
0
0
0
0
0
0
0
0
0
0
0
0
0
0
0
0
0
0
0
0
0
0
0
0
0
0
0
0
0
0
0
0
0
0
0
0
0
0
0
0
0
0
0
0
0
0
0
0
0
0
0
0
0
0
0
0
0
0
0
0
0
0
0
0
0
0
0
0
0
0
0
0
0
0
0
0
0
0
0
0
0
0
0
0
0
0
0
0
0
0
0
0
0
0
0
0
0
0
0
0
0
0
0
0
0
0
0
0
0
0
0
0
0
0
0
0
0
0
0
0
0
0
0
0
0
0
0
0
0
0
0
0
0
0
0
0
0
0
0
0
0
0
0
0
0
0
0
0
0
0
0
SCALARS damp_viscous double 1
LOOKUP_TABLE default
0
0
0
0
0
0
0
0
0
0
0
0
0
0
0
0
0
0
0
0
0
0
0
0
0
0
0
0
0
0
0
0
0
0
0
0
0
0
0
0
0
0
0
0
0
0
0
0
0
0
0
0
0
0
0
0
0
0
0
0
0
0
0
0
0
0
0
0
0
0
0
0
0
0
0
0
0
0
0
0
0
0
0
0
0
0
0
0
0
0
0
0
0
0
0
0
0
0
0
0
0
0
0
0
0
0
0
0
0
0
0
0
0
0
0
0
0
0
0
0
0
0
0
0
0
0
0
0
0
0
0
0
0
0
0
0
0
0
0
0
0
0
0
0
0
0
0
0
0
0
0
0
0
0
0
0
0
0
0
0
0
0
0
0
0
0
0
0
0
0
0
0
0
0
0
0
0
0
0
0
0
0
0
0
0
0
0
0
0
0
0
0
0
0
0
0
0
0
0
0
0
0
0
0
0
0
0
0
0
0
0
0
0
0
0
0
0
0
0
0
0
0
0
0
0
0
0
0
0
0
0
0
0
0
0
0
0
0
0
0
0
0
0
0
0
0
0
0
0
0
0
0
0
0
0
0
0
0
0
0
0
0
0
0
0
0
0
0
0
0
0
0
0
0
0
0
0
0
0
0
0
0
0
0
0
0
0
0
0
0
0
0
0
0
0
0
0
0
0
0
0
0
0
0
0
0
0
0
0
0
0
0
0
0
0
0
0
0
0
0
0
0
0
0
0
0
0
0
0
0
0
0
0
0
0
0
0
0
0
0
0
0
0
0
0
0
0
0
0
0
0
0
0
0
0
0
0
0
0
0
0
0
0
0
0
0
0
0
0
0
0
0
0
0
0
0
0
0
0
0
0
0
0
0
0
0
0
0
0
0
0
0
0
0
0
0
0
0
0
0
0
0
0
0
0
0
0
0
0
0
0
0
0
0
0
0
0
0
0
0
0
0
0
0
0
0
0
0
0
0
0
0
0
0
0
0
0
0
0
0
0
0
0
0
0
0
0
0
0
0
0
0
0
0
0
0
0
0
0
0
0
0
0
0
0
0
0
0
0
0
0
0
0
0
0
0
0
0
0
0
0
0
0
0
0
0
0
0
0
0
0
0
0
0
0
0
0
0
0
0
SCALARS damp_numerical double 1
LOOKUP_TABLE default
0.5
0.5
0.5
0.5
0.5
0.5
0.5
0.5
0.5
0.5
0.5
0.5
0.5
0.5
0.5
0.5
0.5
0.5
0.5
0.5
0.5
0.5
0.5
0.5
0.5
0.5
0.5
0.5
0.5
0.5
0.5
0.5
0.5
0.5
0.5
0.5
0.5
0.5
0.5
0.5
0.5
0.5
0.5
0.5
0.5
0.5
0.5
0.5
0.5
0.5
0.5
0.5
0.5
0.5
0.5
0.5
0.5
0.5
0.5
0.5
0.5
0.5
0.5
0.5
0.5
0.5
0.5
0.5
0.5
0.5
0.5
0.5
0.5
0.5
0.5
0.5
0.5
0.5
0.5
0.5
0.5
0.5
0.5
0.5
0.5
0.5
0.5
0.5
0.5
0.5
0.5
0.5
0.5
0.5
0.5
0.5
0.5
0.5
0.5
0.5
0.5
0.5
0.5
0.5
0.5
0.5
0.5
0.5
0.5
0.5
0.5
0.5
0.5
0.5
0.5
0.5
0.5
0.5
0.5
0.5
0.5
0.5
0.5
0.5
0.5
0.5
0.5
0.5
0.5
0.5
0.5
0.5
0.5
0.5
0.5
0.5
0.5
0.5
0.5
0.5
0.5
0.5
0.5
0.5
0.5
0.5
0.5
0.5
0.5
0.5
0.5
0.5
0.5
0.5
0.5
0.5
0.5
0.5
0.5
0.5
0.5
0.5
0.5
0.5
0.5
0.5
0.5
0.5
0.5
0.5
0.5
0.5
0.5
0.5
0.5
0.5
0.5
0.5
0.5
0.5
0.5
0.5
0.5
0.5
0.5
0.5
0.5
0.5
0.5
0.5
0.5
0.5
0.5
0.5
0.5
0.5
0.5
0.5
0.5
0.5
0.5
0.5
0.5
0.5
0.5
0.5
0.5
0.5
0.5
0.5
0.5
0.5
0.5
0.5
0.5
0.5
0.5
0.5
0.5
0.5
0.5
0.5
0.5
0.5
0.5
0.5
0.5
0.5
0.5
0.5
0.5
0.5
0.5
0.5
0.5
0.5
0.5
0.5
0.5
0.5
0.5
0.5
0.5
0.5
0.5
0.5
0.5
0.5
0.5
0.5
0.5
0.5
0.5
0.5
0.5
0.5
0.5
0.5
0.5
0.5
0.5
0.5
0.5
0.5
0.5
0.5
0.5
0.5
0.5
0.5
0.5
0.5
0.5
0.5
0.5
0.5
0.5
0.5
0.5
0.5
0.5
0.5
0.5
0.5
0.5
0.5
0.5
0.5
0.5
0.5
0.5
0.5
0.5
0.5
0.5
0.5
0.5
0.5
0.5
0.5
0.5
0.5
0.5
0.5
0.5
0.5
0.5
0.5
0.5
0.5
0.5
0.5
0.5
0.5
0.5
0.5
0.5
0.5
0.5
0.5
0.5
0.5
0.5
0.5
0.5
0.5
0.5
0.5
0.5
0.5
0.5
0.5
0.5
0.5
0.5
0.5
0.5
0.5
0.5
0.5
0.5
0.5
0.5
0.5
0.5
0.5
0.5
0.5
0.5
0.5
0.5
0.5
0.5
0.5
0.5
0.5
0.5
0.5
0.5
0.5
0.5
0.5
0.5
0.5
0.5
0.5
0.5
0.5
0.5
0.5
0.5
0.5
0.5
0.5
0.5
0.5
0.5
0.5
0.5
0.5
0.5
0.5
0.5
0.5
0.5
0.5
0.5
0.5
0.5
0.5
0.5
0.5
0.5
0.5
0.5
0.5
0.5
0.5
0.5
0.5
0.5
0.5
0.5
0.5
0.5
0.5
0.5
0.5
0.5
0.5
0.5
0.5
0.5
0.5
0.5
0.5
0.5
0.5
0.5
0.5
0.5
0.5
0.5
0.5
0.5
0.5
0.5
0.5
0.5
0.5
0.5
0.5
0.5
0.5
0.5
0.5
0.5
0.5
0.5
0.5
0.5
0.5
0.5
0.5
0.5
0.5
0.5
0.5
0.5
0.5
0.5
0.5
0.5
0.5
0.5
0.5
0.5
0.5
0.5
0.5
0.5
0.5
0.5
0.5
0.5
0.5
0.5
0.5
0.5
0.5
0.5
0.5
0.5
0.5
0.5
0.5
0.5
0.5
0.5
0.5
0.5
0.5
0.5
0.5
0.5
0.5
0.5
0.5
0.5
0.5
0.5
0.5
0.5
0.5
0.5
0.5
0.5
0.5
0.5
0.5
SCALARS quat double 4
LOOKUP_TABLE default
0.962602 0.0903265 -0.0564879 0.249092 
0.788239 0.138032 0.599618 0.00922304 
0.986144 0.110886 -0.027349 -0.120314 
-0.372881 -0.493623 -0.534538 -0.575817 
0.101518 0.707497 -0.408449 0.567725 
0.80536 -0.280284 -0.200859 0.482173 
0.0658899 -0.261059 -0.362053 0.892426 
0.874949 0.0501884 0.348427 0.332482 
-0.0954201 0.420983 0.901681 -0.0252804 
0.060179 0.0892765 0.0043729 0.994178 
0.92783 -0.137025 -0.0852514 0.336284 
0.144308 -0.920701 -0.199309 -0.302919 
0.067924 0.413991 -0.0617725 0.905639 
0.600583 0.709648 0.353759 -0.102731 
0.334746 0.821326 -0.213943 0.409387 
0.996405 0.0732367 -0.0400001 0.0145792 
0.641435 0.0552796 -0.035067 0.764379 
0.989968 0.0647278 -0.0233717 0.123397 
0.974568 0.112512 -0.0923067 0.170404 
-0.757142 0.179684 0.619111 0.105602 
0.834027 0.137047 0.507945 -0.166161 
-0.290715 0.851003 -0.289752 0.327602 
0.784896 -0.289908 -0.466218 -0.287284 
0.490297 0.724778 -0.449596 -0.179357 
0.985263 0.0911124 -0.0959815 0.108362 
0.931209 0.155165 -0.172594 0.281042 
-0.611826 0.693624 -0.32991 0.188981 
0.971631 0.143036 -0.170175 -0.0807159 
0.74337 -0.342699 -0.446833 0.36097 
-0.160296 0.384923 -0.331128 0.84646 
0.733714 0.34309 0.514901 0.280767 
0.296135 -0.736439 -0.174133 -0.582786 
0.186476 -0.0373777 -0.936935 0.293228 
0.149608 0.114929 0.076836 0.979033 
0.530956 0.756812 0.160705 -0.345679 
0.41676 -0.152552 0.0233709 0.89582 
-0.294146 0.513921 -0.491036 0.638942 
0.255658 0.315526 0.280176 0.869818 
0.74415 -0.619364 -0.233377 0.0903556 
0.585441 0.630755 -0.118879 -0.495253 
0.946734 0.143101 -0.165579 0.236221 
0.695349 0.193006 -0.106345 0.684054 
0.977273 -0.206754 -0.0466721 -0.0034922 
0.0126857 0.821741 0.546076 -0.162424 
0.737899 -0.576569 -0.298729 -0.183944 
0.301831 0.256864 -0.67567 0.621602 
0.547925 -0.171492 0.149333 -0.805027 
-0.94872 0.136532 -0.176368 0.224017 
0.385341 0.773996 -0.402632 0.300549 
-0.842463 0.512692 0.0927395 -0.137125 
0.926556 0.29637 -0.201519 -0.114235 
0.251895 -0.149265 0.905413 -0.307403 
0.803467 0.057907 0.585717 -0.0895726 
-0.653555 0.430876 -0.622071 -0.0154759 
-0.482698 0.505974 0.463069 -0.544574 
-0.598656 0.510612 0.473058 -0.396362 
0.0665077 0.212519 0.971528 -0.0809058 
0.0482051 -0.0756462 -0.866339 -0.491336 
-0.18855 0.0467779 0.783875 -0.589747 
0.3582 -0.912046 -0.199662 -2.38661e-05 
-0.447415 0.232688 0.651842 -0.566373 
-0.866641 -0.0856581 0.00933124 0.491436 
-0.308718 -0.711381 0.140161 0.615618 
0.131746 0.228502 0.953302 0.147122 
-0.0860014 0.0336351 0.994021 -0.0582687 
0.909423 0.252038 -0.299464 -0.140529 
-0.123229 -0.954153 -0.188784 0.196895 
0.957602 -0.169564 -0.145503 0.181868 
0.891275 0.036002 0.414332 -0.180728 
-0.937933 -0.0617771 -0.0926681 -0.328447 
0.63987 -0.488195 -0.347929 0.480809 
-0.578628 -0.73132 -0.348885 -0.0929477 
0.343374 0.371748 0.0303403 -0.861961 
-0.605002 0.726685 -0.292809 -0.142002 
0.942915 -0.242025 0.0231561 -0.227596 
0.959601 0.105614 -0.104988 -0.238724 
0.593174 -0.0519071 -0.629532 0.499139 
0.881446 -0.285802 0.362952 -0.0981631 
-0.607853 -0.204104 -0.111593 0.759212 
-0.555768 0.193436 -0.0725704 -0.805256 
0.900468 0.233614 0.0364403 -0.365041 
-0.339548 0.881632 0.0121118 0.327545 
0.896076 -0.163676 0.383017 -0.153479 
-0.238488 0.829678 -0.277306 0.421734 
0.949785 -0.28786 0.0539853 -0.110144 
0.76517 -0.487086 -0.378255 0.184892 
-0.136719 -0.365277 0.0266996 -0.920417 
0.783488 0.406459 0.262259 -0.390073 
0.324486 0.926675 0.0699184 -0.176337 
-0.203557 0.55917 -0.672878 0.439464 
0.856454 -0.231238 0.403043 -0.224884 
-0.807866 0.351957 -0.467722 0.0686718 
0.882112 -0.0389126 -0.398309 0.248424 
0.819147 -0.418657 0.391775 0.0153709 
0.789282 0.0393544 0.34831 -0.504147 
0.238572 -0.510163 -0.449089 -0.69364 
0.264781 -0.797158 0.488446 0.236328 
0.2437 -0.270077 -0.699331 0.615309 
-0.581475 0.608927 0.252224 -0.476946 
0.985924 -0.101021 -0.00582745 -0.133099 
0.842009 -0.0888712 -0.0996353 -0.522681 
0.330189 0.507928 0.742097 0.286837 
-0.0442156 0.435766 -0.893628 0.0978911 
-0.614769 -0.549332 -0.565379 -0.0253003 
-0.185799 -0.0737954 -0.507484 0.838148 
0.945755 -0.136771 0.240103 0.170854 
-0.794176 0.446591 0.25489 -0.32384 
0.127541 0.753046 0.645143 0.0211149 
0.819326 0.459415 -0.143419 -0.311565 
0.0052588 0.219509 -0.972924 0.0721568 
0.254763 -0.577456 -0.305469 0.712972 
-0.391761 -0.277353 0.688034 0.54425 
-0.0785443 -0.344283 0.227682 -0.907448 
0.827625 -0.257691 0.4567 0.200146 
-0.243297 0.0583081 0.0714168 0.96556 
0.90285 -0.360256 0.233631 -0.0222224 
-0.0219885 -0.801824 0.594282 0.0585053 
0.431521 -0.0800898 -0.397189 0.805988 
0.883925 0.0935798 0.0920127 0.448834 
0.209274 0.168177 -0.817364 0.509741 
-0.0151713 0.130082 0.391748 -0.910704 
-0.12105 -0.292118 -0.739615 0.594124 
0.317446 -0.46812 -0.42279 -0.708054 
-0.92921 -0.21657 -0.197151 0.225384 
0.777618 -0.582792 0.0152681 0.235436 
0.758242 0.32172 -0.54482 -0.157279 
0.417427 0.618281 0.572487 -0.340208 
0.522811 0.267921 0.208992 -0.781799 
-0.487049 0.258351 0.81724 -0.167798 
0.459933 -0.437703 0.698385 0.330357 
-0.0335048 0.511427 0.725099 -0.459947 
-0.994643 -0.0635276 -0.0542539 0.0608779 
-0.0975243 -0.613221 -0.780527 -0.0722921 
0.20409 0.206646 -0.951688 0.09967 
0.113964 -0.92091 0.183608 0.324385 
0.116657 -0.0649364 0.82026 0.55619 
0.267691 0.73822 0.227273 0.575951 
-0.656944 -0.745321 0.0489842 -0.102577 
0.297611 0.920332 -0.174764 -0.184048 
-0.0723385 0.814543 -0.575522 0.00782064 
-0.467421 0.100949 -0.836155 0.268648 
0.419515 -0.317819 0.227019 0.819427 
-0.09037 0.503955 -0.145728 0.846538 
0.932346 -0.282238 -0.190004 0.122358 
0.0126855 -0.515716 -0.78032 -0.35352 
-0.443849 -0.823674 0.228675 0.268824 
0.706192 -0.531052 0.382327 -0.270375 