# vtk DataFile Version 2.0
Generated by NetDEM
ASCII 
DATASET POLYDATA
POINTS 500 double
-0.418851 -0.408266 -0.464002 
-0.449317 -0.194481 -0.450026 
-0.408857 -0.00884304 -0.463359 
-0.450012 0.110138 -0.450024 
-0.438383 0.347979 -0.450043 
-0.270808 -0.429836 -0.459157 
-0.305197 -0.21758 -0.450047 
-0.192734 -0.010113 -0.450073 
-0.172839 0.173504 -0.463923 
-0.254115 0.365933 -0.463055 
-0.0557578 -0.397439 -0.461051 
-0.14451 -0.135064 -0.450017 
-0.0549129 -0.0904551 -0.450028 
0.0373139 0.17946 -0.452544 
-0.0300262 0.319141 -0.442239 
0.193328 -0.401483 -0.462839 
0.168762 -0.210308 -0.463111 
0.17334 -0.00625061 -0.462379 
0.161169 0.208061 -0.465063 
0.297946 0.402691 -0.418908 
0.450004 -0.408833 -0.450039 
0.431906 -0.30269 -0.450007 
0.336994 -0.0144359 -0.450017 
0.378913 0.0890592 -0.450026 
0.372086 0.439414 -0.465051 
-0.430429 -0.410603 -0.393798 
-0.45 -0.270438 -0.384996 
-0.408579 -0.0179439 -0.386275 
-0.447382 0.175049 -0.374007 
-0.450019 0.449624 -0.450039 
-0.335757 -0.406921 -0.406764 
-0.236902 -0.152874 -0.416184 
-0.155937 -0.0997354 -0.204493 
-0.304652 0.164377 -0.465044 
-0.149084 0.40332 -0.449751 
-0.0867677 -0.390778 -0.396063 
0.312277 -0.240427 -0.122284 
-0.0358546 -0.0146813 -0.305203 
0.0277391 0.259654 -0.450285 
0.120854 0.301584 -0.428469 
0.202804 -0.414481 -0.390542 
0.166309 -0.206484 -0.389722 
0.175252 0.01584 -0.385657 
0.197271 0.112785 -0.455663 
0.284231 0.370489 -0.325244 
0.385914 -0.450009 -0.385291 
0.435909 -0.356757 -0.365894 
0.275928 -0.209731 -0.450014 
0.450009 0.140316 -0.401914 
0.424771 0.34063 -0.456392 
-0.435425 -0.441071 -0.326063 
-0.320676 -0.207439 -0.351779 
-0.312934 -0.0209395 -0.366024 
-0.289983 0.26935 -0.450018 
-0.450017 0.274606 -0.383172 
-0.180671 -0.374128 -0.451684 
0.184681 -0.336312 -0.298329 
-0.238386 -0.0583614 -0.165907 
-0.176015 0.0788069 -0.450167 
-0.349509 0.331993 -0.33528 
0.043522 -0.44031 -0.449574 
0.207415 -0.283073 -0.131065 
0.206232 0.0631655 -0.202051 
-0.0389501 0.22176 -0.390589 
0.255682 0.331072 -0.463874 
0.200063 -0.435466 -0.319343 
0.0521059 -0.0957425 -0.450308 
0.161991 0.0600126 -0.330664 
0.273426 0.0656587 -0.443369 
0.113101 0.13923 -0.397736 
0.308969 -0.445894 -0.450007 
0.378128 -0.21729 -0.450085 
0.380334 -0.10923 -0.450032 
0.449998 0.233093 -0.364628 
0.43786 0.256412 -0.459853 
-0.433824 -0.452833 -0.243711 
-0.175292 -0.165623 -0.338482 
-0.239999 -0.00426636 -0.3528 
-0.271365 0.0913241 -0.403563 
-0.356445 0.142509 -0.344988 
-0.159183 -0.448267 -0.393496 
-0.127562 -0.0566717 -0.390267 
-0.239371 0.0484394 -0.222914 
-0.0550952 0.127661 -0.443904 
-0.355291 0.379697 -0.407468 
0.093849 -0.452663 -0.355762 
0.449918 -0.331084 -0.0715471 
-0.187088 -0.235898 -0.450007 
0.0179115 0.0471921 -0.450198 
0.0669048 0.397865 -0.409536 
0.263441 -0.446997 -0.243436 
0.155639 -0.31869 -0.399675 
0.123392 0.0660826 -0.267663 
0.263822 0.174945 -0.443036 
0.144725 0.450003 -0.450011 
0.350221 -0.31355 -0.337811 
0.450003 -0.107806 -0.378343 
0.386615 0.161837 -0.327622 
0.330759 0.308463 -0.412297 
0.434983 0.371168 -0.37683 
-0.388147 -0.439745 -0.169276 
-0.367664 -0.362103 -0.117674 
-0.294173 -0.0402145 -0.27316 
-0.368375 0.0680033 -0.410578 
-0.448628 0.426774 -0.352729 
-0.266231 -0.438412 -0.3635 
-0.064539 -0.151196 -0.371094 
-0.249052 0.0389758 -0.123839 
-0.00760553 -0.0232398 -0.395298 
-0.422562 0.24234 -0.464113 
0.0826554 -0.34244 -0.440725 
0.355557 -0.210973 -0.0366184 
0.0298915 -0.11869 -0.34978 
0.0302535 0.0429719 -0.354795 
-0.00285238 0.437009 -0.464434 
0.303998 -0.387549 -0.212294 
0.260779 -0.313055 -0.42676 
0.0405798 0.06957 -0.258169 
0.244431 0.238568 -0.379328 
0.349174 0.45002 -0.268667 
0.334345 -0.40851 -0.310169 
0.450078 -0.210597 -0.381078 
0.45 -0.0315288 -0.450007 
0.338112 0.209374 -0.401035 
0.398416 0.452741 -0.373332 
-0.462009 -0.452478 -0.124729 
-0.320467 -0.139336 -0.278582 
-0.45115 -0.0309762 -0.317956 
-0.251169 0.18914 -0.392077 
-0.307861 0.447464 -0.354932 
-0.161996 -0.375524 -0.336393 
-0.084539 -0.220941 -0.450007 
-0.193186 -0.159619 -0.133604 
-0.135098 0.147776 -0.397107 
-0.228915 0.33085 -0.394118 
-0.0918829 -0.311241 -0.451295 
0.290322 -0.319739 -0.0638724 
0.449734 0.0528922 -0.158978 
0.0476469 0.120186 -0.329236 
-0.113683 0.312598 -0.404029 
0.16993 -0.42875 -0.229888 
0.238496 -0.141523 -0.39138 
0.111351 -0.0235936 -0.21599 
0.196187 0.306404 -0.338469 
0.201857 0.384938 -0.396236 
0.45 -0.441254 -0.308962 
0.334951 -0.176368 -0.36976 
0.249891 -0.0635255 -0.44991 
0.449699 0.0517091 -0.355496 
0.440596 0.404488 -0.298091 
-0.439657 -0.457148 -0.00889815 
-0.228677 -0.170574 -0.254078 
-0.423308 -0.113573 -0.405143 
-0.206991 0.272478 -0.330664 
-0.33583 0.237869 -0.366922 
-0.137293 -0.286868 -0.36869 
0.13014 -0.450011 -0.0900007 
-0.305508 0.361867 -0.167074 
-0.105996 0.275956 -0.324213 
-0.221492 0.45257 -0.421938 
-0.00170191 -0.340186 -0.3548 
0.119862 -0.236706 -0.144742 
-0.167094 -0.0708394 -0.299538 
0.0202536 0.199064 -0.299108 
0.00852581 0.294414 -0.345515 
0.0788388 -0.413712 -0.272839 
0.135864 -0.0964096 -0.397406 
0.257897 -0.118247 -0.261509 
0.23089 0.183305 -0.323064 
0.140501 0.449024 -0.350108 
0.389363 -0.228102 -0.303625 
0.345154 -0.0734339 -0.363536 
0.322876 0.0596636 -0.372606 
0.40049 0.30174 -0.310602 
0.445921 0.377007 -0.209731 
-0.329414 -0.442903 -0.050993 
-0.447793 -0.0984879 -0.260427 
-0.355309 0.0114074 -0.237768 
-0.449998 0.0675353 -0.350623 
-0.419211 0.260328 -0.289148 
-0.268145 -0.307909 -0.446823 
-0.178625 -0.276704 -0.235148 
-0.143784 0.398174 -0.0691864 
-0.12701 0.189082 -0.333392 
-0.140948 0.441834 -0.346497 
0.00732015 -0.436135 -0.355753 
0.0151646 -0.0972359 -0.253235 
0.0157924 -0.224232 -0.450007 
-0.0294489 0.270296 -0.243518 
-0.00627073 0.412254 -0.369403 
0.0767396 -0.426218 -0.17068 
0.0958798 -0.0416889 -0.329412 
0.291471 -0.160118 -0.183725 
0.204055 0.137209 -0.264154 
0.249335 0.449967 -0.275616 
0.450018 -0.30821 -0.279623 
0.450007 -0.149783 -0.287595 
0.365262 0.0403977 -0.284145 
0.316913 0.246937 -0.307384 
0.382042 0.427411 -0.19227 
-0.242562 -0.446728 -0.124988 
-0.443185 0.229879 -0.197022 
-0.294633 0.193348 -0.180844 
-0.191321 0.0766757 -0.341773 
-0.379071 0.450004 -0.284765 
-0.224729 -0.349524 -0.238794 
-0.0439093 -0.262516 -0.301254 
0.015139 -0.243743 -0.222769 
-0.158233 0.116257 -0.251321 
-0.167339 0.352193 -0.32682 
-0.0436612 -0.387258 -0.289376 
-0.181133 -0.0986361 0.20416 
-0.0275205 0.204662 -0.16308 
-0.0571133 0.118946 -0.302962 
0.106366 0.360283 -0.323526 
0.274626 -0.431851 -0.131592 
0.218411 -0.197579 -0.308992 
0.294318 -0.106235 -0.113696 
0.151394 0.228703 -0.286567 
0.210492 0.343498 -0.247053 
0.412474 -0.380544 -0.221591 
0.445945 -0.227037 -0.221249 
0.437242 -0.0362806 -0.309642 
0.304559 0.119765 -0.288251 
0.406207 0.405475 -0.119083 
-0.249348 -0.332135 -0.146759 
-0.415855 -0.334989 -0.31668 
-0.429247 0.32827 -0.116992 
-0.339724 0.322393 -0.0515639 
-0.448989 0.428516 -0.00181611 
-0.140483 -0.416312 -0.248355 
-0.0538662 0.13568 -0.0581014 
-0.259737 -0.177198 -0.0171838 
-0.184485 0.176503 -0.180517 
-0.159307 0.337445 -0.218479 
-0.0596724 -0.385274 -0.202407 
-0.137479 -0.141658 0.00373008 
-0.112976 -0.0273676 -0.15047 
-0.00176397 0.111222 -0.191451 
0.0249028 0.446317 -0.276197 
0.297481 -0.322386 -0.162961 
0.248178 -0.29582 -0.340306 
0.352838 -0.0507096 -0.0642746 
0.155591 0.271266 -0.212976 
0.207836 0.407338 -0.127931 
0.36569 -0.450004 -0.166956 
0.449643 -0.198812 -0.0681893 
0.336042 0.130227 0.00351374 
0.45005 0.152314 -0.169757 
0.426741 0.389174 -0.0376263 
-0.298208 -0.31892 -0.347639 
-0.117398 -0.204193 -0.266665 
-0.324641 -0.0221624 -0.140639 
-0.219549 0.208254 -0.255095 
-0.424963 0.444477 -0.196115 
-0.248293 -0.429414 -0.236475 
0.0990455 -0.285101 -0.304903 
-0.309004 0.256897 -0.120618 
-0.248175 0.302477 -0.198359 
-0.150566 0.442275 -0.234911 
0.0175246 -0.381081 -0.157547 
0.450001 -0.38854 0.0103006 
0.0779549 0.437573 -0.181104 
-0.07358 0.406576 -0.319234 
-0.0368906 0.447751 -0.213834 
0.354456 -0.396654 -0.079408 
0.373915 -0.0980009 -0.162139 
0.196587 -0.0277377 -0.28652 
0.222443 0.198741 -0.192973 
0.0875831 0.238516 -0.366532 
0.354204 -0.295802 -0.238975 
0.355293 -0.1492 -0.252409 
0.450044 0.0839529 -0.254007 
0.448508 0.216713 -0.266021 
0.409007 0.449819 -0.0055432 
-0.336301 -0.394173 0.0267644 
-0.138575 -0.345673 -0.124409 
-0.432534 -0.112154 -0.176357 
-0.450016 0.0949116 -0.167434 
-0.346863 0.197029 -0.261705 
-0.144841 -0.442783 -0.155703 
-0.0619825 -0.293149 -0.167395 
-0.2302 0.450002 -0.291993 
-0.282063 0.312605 -0.279157 
-0.206685 0.43472 -0.15164 
0.0407114 -0.406264 -0.0715906 
-0.115412 0.450002 0.131708 
0.0302463 0.182891 -0.0844299 
-0.0695433 0.308142 -0.186779 
0.00659219 0.369446 -0.173218 
0.268361 -0.425031 -0.0213817 
0.0278858 -0.0898113 0.0023757 
0.146074 -0.0367878 -0.130017 
0.288235 0.174751 -0.135142 
0.073209 0.251101 -0.145526 
0.406965 -0.282722 -0.147813 
0.450038 -0.151316 -0.156133 
0.333236 -0.0526489 -0.26625 
0.450005 0.27604 -0.185517 
0.302071 0.414209 -0.0723249 
-0.289808 -0.354417 -0.0564399 
-0.416088 0.00132552 -0.176777 
-0.393078 -0.298025 -0.0582063 
-0.431392 0.136911 -0.279023 
-0.450012 0.450005 -0.0994573 
-0.158459 -0.427599 -0.0557746 
-0.139893 -0.321636 -0.027328 
-0.282646 0.0895926 -0.303122 
-0.134094 0.277768 -0.103855 
-0.250105 0.379725 -0.0797243 
-0.0215391 -0.426436 -0.00974463 
-0.407174 -0.173535 -0.314812 
0.0128623 -0.003177 -0.218536 
-0.043394 0.291603 -0.0791207 
-0.00975176 0.443641 -0.123754 
0.154669 -0.391653 -0.00932369 
0.452765 0.00324997 0.0208343 
0.0752125 -0.0286797 -0.0626444 
0.304092 0.336412 -0.196614 
0.281168 0.450012 -0.180816 
0.372818 -0.450003 -0.00657609 
0.440649 -0.04187 0.100804 
0.247251 -0.0581372 -0.350105 
0.349314 0.252681 -0.183807 
0.439372 0.453288 0.0816548 
-0.340169 -0.207349 0.0458314 
-0.386503 -0.270341 -0.152748 
-0.420224 0.102095 -0.0857255 
-0.388342 0.313476 -0.195299 
-0.450002 0.368846 -0.271222 
-0.173197 -0.43358 0.0582175 
-0.0570076 -0.149894 -0.208322 
-0.224312 0.28954 -0.0785927 
-0.101445 0.382557 -0.155967 
-0.0762119 0.438166 -0.0346702 
-0.0913066 -0.44594 0.0364863 
0.0787636 -0.166664 -0.219543 
-0.0672814 0.0660214 -0.128586 
0.0319003 0.249482 -0.022156 
0.00750117 0.424258 -0.0483564 
0.135919 -0.334827 -0.0767817 
0.17736 -0.188955 -0.223844 
0.129271 0.151022 -0.172669 
0.312953 0.221328 -0.0503686 
0.172399 0.450001 -0.211532 
0.450005 -0.414623 -0.126499 
0.322633 -0.267657 0.038883 
0.412868 -0.0222884 -0.213668 
0.370634 0.166072 -0.229004 
0.425068 0.274588 0.198587 
-0.420984 -0.382898 0.0688415 
-0.450002 -0.215433 -0.234749 
-0.365831 0.217782 -0.0687676 
-0.44832 0.063306 0.00623299 
-0.45 0.195631 -0.103337 
-0.227165 -0.379278 0.00821426 
-0.277683 -0.113894 -0.0924784 
-0.321797 -0.11265 -0.182211 
-0.189473 0.358353 0.0144764 
-0.130882 0.399153 0.0365608 
0.0430683 -0.185699 -0.114843 
-0.150083 -0.247165 -0.111621 
0.219905 0.137079 -0.0629352 
0.104884 0.315244 -0.0201428 
-0.0199189 0.439202 0.0459082 
0.0771431 -0.214295 -0.0047984 
0.45583 -0.0751271 -0.0993367 
0.28171 0.0613178 -0.0118765 
0.191717 0.224113 -0.100442 
0.104237 0.336534 0.0953602 
0.399056 -0.0771337 0.0169869 
0.44834 -0.267154 0.00532655 
0.366603 0.0108759 -0.122702 
0.426684 0.111743 -0.0814108 
0.327928 0.319131 -0.100381 
-0.427223 -0.177966 -0.1231 
-0.450002 -0.243784 -0.0189588 
-0.394918 -0.00532037 -0.081988 
-0.449994 0.283055 0.063877 
-0.350169 0.448441 -0.129867 
-0.239032 -0.305904 0.0721724 
-0.274307 -0.275871 -0.00993711 
-0.326161 0.0630927 -0.0372603 
-0.121024 0.218254 -0.0362465 
-0.124883 0.193551 0.0471844 
0.0272364 -0.31278 -0.00241791 
-0.122575 -0.105269 -0.0882082 
0.113554 0.111613 -0.0817599 
-0.156585 0.10708 -0.120244 
0.0415404 0.413297 0.124738 
0.038282 -0.291307 -0.131983 
0.286616 -0.0732499 0.00199202 
0.269142 0.0231217 -0.0854605 
0.185044 0.280779 -0.0206872 
0.154385 0.323767 -0.14048 
0.327757 -0.338076 0.109774 
0.258526 -0.176269 -0.0580451 
0.416532 0.186386 -0.0156196 
0.411436 0.232996 -0.103929 
0.436414 0.271095 0.033605 
-0.335293 -0.351806 0.110987 
-0.338688 -0.222817 -0.226626 
-0.447705 -0.0595515 -0.0127676 
-0.44995 0.133649 0.0776935 
-0.27914 0.365343 0.0153796 
-0.0603877 -0.181246 -0.12093 
-0.178146 -0.232885 -0.00166467 
-0.232096 0.00542301 -0.0311763 
-0.288294 0.216977 0.00456263 
-0.205137 0.41128 0.106314 
0.211345 -0.0577398 -0.0877202 
0.00273196 -0.0825334 -0.15505 
-0.129739 -0.0340766 0.145825 
-0.0202084 0.241396 0.0599166 
-0.0715524 0.351462 0.095108 
0.300939 -0.441513 0.08554 
0.327612 -0.213199 0.124678 
0.179079 0.0401998 -0.117384 
0.263494 0.289605 0.0273846 
0.240901 0.450001 0.0023068 
0.447197 -0.164416 0.0258099 
0.315771 0.362689 0.0090294 
0.449121 0.088224 0.0131411 
0.43101 0.160451 0.0798637 
0.38593 0.368874 0.0782017 
-0.402214 -0.396886 0.155634 
-0.439466 -0.26449 0.0782987 
-0.197199 -0.0738345 -0.0562481 
-0.445027 0.268382 -0.0349067 
-0.389269 0.354609 0.0293389 
-0.210305 -0.393146 0.110839 
-0.246141 -0.00468367 0.137802 
-0.0416378 -0.0106545 -0.069754 
-0.285821 0.144238 -0.0772776 
-0.284432 0.399767 0.179289 
0.197171 -0.417414 0.0731661 
0.120897 -0.131231 -0.11381 
0.0335471 0.0517301 -0.11139 
-0.0884014 0.106429 0.0840198 
-0.041248 0.413752 0.174119 
0.302977 -0.409866 0.181494 
0.206336 -0.115167 0.00963564 
0.0951799 0.193562 0.0270168 
0.269766 0.172352 0.173368 
0.157476 0.417013 -0.0421068 
0.410367 -0.44994 0.086086 
0.333174 -0.163184 0.0483794 
-0.182114 0.11766 0.104202 
0.374913 0.208502 0.147261 
0.313588 0.453366 0.0791468 
-0.44112 -0.450575 0.19148 
-0.31771 0.0524203 0.0616371 
-0.396642 0.00180279 0.0509733 
-0.421345 0.159903 -0.0144405 
-0.450002 0.416932 0.0974947 
-0.297664 -0.451834 0.0900842 
-0.238018 -0.152993 0.0773848 
-0.173779 0.0331487 0.0451778 
-0.364267 0.143733 0.13289 
-0.431947 0.405735 0.214199 
0.240298 -0.259943 0.139455 
-0.0446418 -0.147188 -0.0416434 
-0.0899657 0.0618377 -0.00119622 
0.0228142 0.32862 0.0416927 
0.0115821 0.31703 0.143646 
0.195552 -0.245705 -0.0416286 
0.216876 -0.299626 0.0432201 
0.197083 -0.0134955 -0.00551113 
0.193023 0.171223 0.0256903 
0.0802279 0.425734 0.0207699 
0.415652 -0.36967 0.145478 
0.449907 -0.157507 0.125533 
0.348924 0.00809163 0.0357401 
0.27147 0.165517 0.0828736 
0.450266 0.354263 0.144546 
-0.312261 -0.31571 0.178398 
-0.202332 -0.0601498 0.0670631 
-0.439985 -0.00722716 0.156828 
-0.368658 0.223211 0.0640776 
-0.36583 0.446004 0.142979 
-0.182041 -0.244255 0.0985143 
-0.20401 -0.188223 0.166068 
-0.0861082 -0.0193178 0.0570723 
-0.318778 0.317328 0.093589 
-0.223206 0.232719 0.0807761 
-0.0467134 -0.110796 0.0598524 
-0.0144821 -0.251906 -0.0589149 
0.0136862 0.00313875 0.0123922 
0.238067 -0.154171 0.0979233 
0.0133065 0.448876 0.234878 
0.217511 -0.391575 0.184629 
0.442162 -0.310183 0.217016 
0.311128 0.0616818 0.117776 
0.176439 0.246332 0.0835049 
0.18229 0.365953 0.0402128 
0.39695 -0.407985 0.236475 
0.448367 -0.202779 0.214685 
0.334283 -0.075602 0.0966266 
0.401298 0.0933157 0.147757 
0.227812 0.423218 0.116865 
VERTICES 500 1000
1 0
1 1
1 2
1 3
1 4
1 5
1 6
1 7
1 8
1 9
1 10
1 11
1 12
1 13
1 14
1 15
1 16
1 17
1 18
1 19
1 20
1 21
1 22
1 23
1 24
1 25
1 26
1 27
1 28
1 29
1 30
1 31
1 32
1 33
1 34
1 35
1 36
1 37
1 38
1 39
1 40
1 41
1 42
1 43
1 44
1 45
1 46
1 47
1 48
1 49
1 50
1 51
1 52
1 53
1 54
1 55
1 56
1 57
1 58
1 59
1 60
1 61
1 62
1 63
1 64
1 65
1 66
1 67
1 68
1 69
1 70
1 71
1 72
1 73
1 74
1 75
1 76
1 77
1 78
1 79
1 80
1 81
1 82
1 83
1 84
1 85
1 86
1 87
1 88
1 89
1 90
1 91
1 92
1 93
1 94
1 95
1 96
1 97
1 98
1 99
1 100
1 101
1 102
1 103
1 104
1 105
1 106
1 107
1 108
1 109
1 110
1 111
1 112
1 113
1 114
1 115
1 116
1 117
1 118
1 119
1 120
1 121
1 122
1 123
1 124
1 125
1 126
1 127
1 128
1 129
1 130
1 131
1 132
1 133
1 134
1 135
1 136
1 137
1 138
1 139
1 140
1 141
1 142
1 143
1 144
1 145
1 146
1 147
1 148
1 149
1 150
1 151
1 152
1 153
1 154
1 155
1 156
1 157
1 158
1 159
1 160
1 161
1 162
1 163
1 164
1 165
1 166
1 167
1 168
1 169
1 170
1 171
1 172
1 173
1 174
1 175
1 176
1 177
1 178
1 179
1 180
1 181
1 182
1 183
1 184
1 185
1 186
1 187
1 188
1 189
1 190
1 191
1 192
1 193
1 194
1 195
1 196
1 197
1 198
1 199
1 200
1 201
1 202
1 203
1 204
1 205
1 206
1 207
1 208
1 209
1 210
1 211
1 212
1 213
1 214
1 215
1 216
1 217
1 218
1 219
1 220
1 221
1 222
1 223
1 224
1 225
1 226
1 227
1 228
1 229
1 230
1 231
1 232
1 233
1 234
1 235
1 236
1 237
1 238
1 239
1 240
1 241
1 242
1 243
1 244
1 245
1 246
1 247
1 248
1 249
1 250
1 251
1 252
1 253
1 254
1 255
1 256
1 257
1 258
1 259
1 260
1 261
1 262
1 263
1 264
1 265
1 266
1 267
1 268
1 269
1 270
1 271
1 272
1 273
1 274
1 275
1 276
1 277
1 278
1 279
1 280
1 281
1 282
1 283
1 284
1 285
1 286
1 287
1 288
1 289
1 290
1 291
1 292
1 293
1 294
1 295
1 296
1 297
1 298
1 299
1 300
1 301
1 302
1 303
1 304
1 305
1 306
1 307
1 308
1 309
1 310
1 311
1 312
1 313
1 314
1 315
1 316
1 317
1 318
1 319
1 320
1 321
1 322
1 323
1 324
1 325
1 326
1 327
1 328
1 329
1 330
1 331
1 332
1 333
1 334
1 335
1 336
1 337
1 338
1 339
1 340
1 341
1 342
1 343
1 344
1 345
1 346
1 347
1 348
1 349
1 350
1 351
1 352
1 353
1 354
1 355
1 356
1 357
1 358
1 359
1 360
1 361
1 362
1 363
1 364
1 365
1 366
1 367
1 368
1 369
1 370
1 371
1 372
1 373
1 374
1 375
1 376
1 377
1 378
1 379
1 380
1 381
1 382
1 383
1 384
1 385
1 386
1 387
1 388
1 389
1 390
1 391
1 392
1 393
1 394
1 395
1 396
1 397
1 398
1 399
1 400
1 401
1 402
1 403
1 404
1 405
1 406
1 407
1 408
1 409
1 410
1 411
1 412
1 413
1 414
1 415
1 416
1 417
1 418
1 419
1 420
1 421
1 422
1 423
1 424
1 425
1 426
1 427
1 428
1 429
1 430
1 431
1 432
1 433
1 434
1 435
1 436
1 437
1 438
1 439
1 440
1 441
1 442
1 443
1 444
1 445
1 446
1 447
1 448
1 449
1 450
1 451
1 452
1 453
1 454
1 455
1 456
1 457
1 458
1 459
1 460
1 461
1 462
1 463
1 464
1 465
1 466
1 467
1 468
1 469
1 470
1 471
1 472
1 473
1 474
1 475
1 476
1 477
1 478
1 479
1 480
1 481
1 482
1 483
1 484
1 485
1 486
1 487
1 488
1 489
1 490
1 491
1 492
1 493
1 494
1 495
1 496
1 497
1 498
1 499
POINT_DATA 500
SCALARS id int 1
LOOKUP_TABLE default
0
1
2
3
4
5
6
7
8
9
10
11
12
13
14
15
16
17
18
19
20
21
22
23
24
25
26
27
28
29
30
31
32
33
34
35
36
37
38
39
40
41
42
43
44
45
46
47
48
49
50
51
52
53
54
55
56
57
58
59
60
61
62
63
64
65
66
67
68
69
70
71
72
73
74
75
76
77
78
79
80
81
82
83
84
85
86
87
88
89
90
91
92
93
94
95
96
97
98
99
100
101
102
103
104
105
106
107
108
109
110
111
112
113
114
115
116
117
118
119
120
121
122
123
124
125
126
127
128
129
130
131
132
133
134
135
136
137
138
139
140
141
142
143
144
145
146
147
148
149
150
151
152
153
154
155
156
157
158
159
160
161
162
163
164
165
166
167
168
169
170
171
172
173
174
175
176
177
178
179
180
181
182
183
184
185
186
187
188
189
190
191
192
193
194
195
196
197
198
199
200
201
202
203
204
205
206
207
208
209
210
211
212
213
214
215
216
217
218
219
220
221
222
223
224
225
226
227
228
229
230
231
232
233
234
235
236
237
238
239
240
241
242
243
244
245
246
247
248
249
250
251
252
253
254
255
256
257
258
259
260
261
262
263
264
265
266
267
268
269
270
271
272
273
274
275
276
277
278
279
280
281
282
283
284
285
286
287
288
289
290
291
292
293
294
295
296
297
298
299
300
301
302
303
304
305
306
307
308
309
310
311
312
313
314
315
316
317
318
319
320
321
322
323
324
325
326
327
328
329
330
331
332
333
334
335
336
337
338
339
340
341
342
343
344
345
346
347
348
349
350
351
352
353
354
355
356
357
358
359
360
361
362
363
364
365
366
367
368
369
370
371
372
373
374
375
376
377
378
379
380
381
382
383
384
385
386
387
388
389
390
391
392
393
394
395
396
397
398
399
400
401
402
403
404
405
406
407
408
409
410
411
412
413
414
415
416
417
418
419
420
421
422
423
424
425
426
427
428
429
430
431
432
433
434
435
436
437
438
439
440
441
442
443
444
445
446
447
448
449
450
451
452
453
454
455
456
457
458
459
460
461
462
463
464
465
466
467
468
469
470
471
472
473
474
475
476
477
478
479
480
481
482
483
484
485
486
487
488
489
490
491
492
493
494
495
496
497
498
499
SCALARS type int 1
LOOKUP_TABLE default
0
0
0
0
0
0
0
0
0
0
0
0
0
0
0
0
0
0
0
0
0
0
0
0
0
0
0
0
0
0
0
0
0
0
0
0
0
0
0
0
0
0
0
0
0
0
0
0
0
0
0
0
0
0
0
0
0
0
0
0
0
0
0
0
0
0
0
0
0
0
0
0
0
0
0
0
0
0
0
0
0
0
0
0
0
0
0
0
0
0
0
0
0
0
0
0
0
0
0
0
0
0
0
0
0
0
0
0
0
0
0
0
0
0
0
0
0
0
0
0
0
0
0
0
0
0
0
0
0
0
0
0
0
0
0
0
0
0
0
0
0
0
0
0
0
0
0
0
0
0
0
0
0
0
0
0
0
0
0
0
0
0
0
0
0
0
0
0
0
0
0
0
0
0
0
0
0
0
0
0
0
0
0
0
0
0
0
0
0
0
0
0
0
0
0
0
0
0
0
0
0
0
0
0
0
0
0
0
0
0
0
0
0
0
0
0
0
0
0
0
0
0
0
0
0
0
0
0
0
0
0
0
0
0
0
0
0
0
0
0
0
0
0
0
0
0
0
0
0
0
0
0
0
0
0
0
0
0
0
0
0
0
0
0
0
0
0
0
0
0
0
0
0
0
0
0
0
0
0
0
0
0
0
0
0
0
0
0
0
0
0
0
0
0
0
0
0
0
0
0
0
0
0
0
0
0
0
0
0
0
0
0
0
0
0
0
0
0
0
0
0
0
0
0
0
0
0
0
0
0
0
0
0
0
0
0
0
0
0
0
0
0
0
0
0
0
0
0
0
0
0
0
0
0
0
0
0
0
0
0
0
0
0
0
0
0
0
0
0
0
0
0
0
0
0
0
0
0
0
0
0
0
0
0
0
0
0
0
0
0
0
0
0
0
0
0
0
0
0
0
0
0
0
0
0
0
0
0
0
0
0
0
0
0
0
0
0
0
0
0
0
0
0
0
0
0
0
0
0
0
0
0
0
0
0
0
0
0
0
0
0
0
0
0
0
0
0
0
0
0
0
0
0
0
0
0
0
0
0
0
0
0
0
0
0
0
0
0
0
0
0
0
0
0
0
0
0
0
0
0
0
0
0
0
0
0
0
0
0
0
0
0
0
0
0
0
0
0
0
0
SCALARS damp_viscous double 1
LOOKUP_TABLE default
0
0
0
0
0
0
0
0
0
0
0
0
0
0
0
0
0
0
0
0
0
0
0
0
0
0
0
0
0
0
0
0
0
0
0
0
0
0
0
0
0
0
0
0
0
0
0
0
0
0
0
0
0
0
0
0
0
0
0
0
0
0
0
0
0
0
0
0
0
0
0
0
0
0
0
0
0
0
0
0
0
0
0
0
0
0
0
0
0
0
0
0
0
0
0
0
0
0
0
0
0
0
0
0
0
0
0
0
0
0
0
0
0
0
0
0
0
0
0
0
0
0
0
0
0
0
0
0
0
0
0
0
0
0
0
0
0
0
0
0
0
0
0
0
0
0
0
0
0
0
0
0
0
0
0
0
0
0
0
0
0
0
0
0
0
0
0
0
0
0
0
0
0
0
0
0
0
0
0
0
0
0
0
0
0
0
0
0
0
0
0
0
0
0
0
0
0
0
0
0
0
0
0
0
0
0
0
0
0
0
0
0
0
0
0
0
0
0
0
0
0
0
0
0
0
0
0
0
0
0
0
0
0
0
0
0
0
0
0
0
0
0
0
0
0
0
0
0
0
0
0
0
0
0
0
0
0
0
0
0
0
0
0
0
0
0
0
0
0
0
0
0
0
0
0
0
0
0
0
0
0
0
0
0
0
0
0
0
0
0
0
0
0
0
0
0
0
0
0
0
0
0
0
0
0
0
0
0
0
0
0
0
0
0
0
0
0
0
0
0
0
0
0
0
0
0
0
0
0
0
0
0
0
0
0
0
0
0
0
0
0
0
0
0
0
0
0
0
0
0
0
0
0
0
0
0
0
0
0
0
0
0
0
0
0
0
0
0
0
0
0
0
0
0
0
0
0
0
0
0
0
0
0
0
0
0
0
0
0
0
0
0
0
0
0
0
0
0
0
0
0
0
0
0
0
0
0
0
0
0
0
0
0
0
0
0
0
0
0
0
0
0
0
0
0
0
0
0
0
0
0
0
0
0
0
0
0
0
0
0
0
0
0
0
0
0
0
0
0
0
0
0
0
0
0
0
0
0
0
0
0
0
0
0
0
0
0
0
0
0
0
0
0
0
0
0
0
0
0
0
0
0
0
0
0
0
0
0
0
0
0
0
0
0
0
0
0
0
0
0
SCALARS damp_numerical double 1
LOOKUP_TABLE default
0.5
0.5
0.5
0.5
0.5
0.5
0.5
0.5
0.5
0.5
0.5
0.5
0.5
0.5
0.5
0.5
0.5
0.5
0.5
0.5
0.5
0.5
0.5
0.5
0.5
0.5
0.5
0.5
0.5
0.5
0.5
0.5
0.5
0.5
0.5
0.5
0.5
0.5
0.5
0.5
0.5
0.5
0.5
0.5
0.5
0.5
0.5
0.5
0.5
0.5
0.5
0.5
0.5
0.5
0.5
0.5
0.5
0.5
0.5
0.5
0.5
0.5
0.5
0.5
0.5
0.5
0.5
0.5
0.5
0.5
0.5
0.5
0.5
0.5
0.5
0.5
0.5
0.5
0.5
0.5
0.5
0.5
0.5
0.5
0.5
0.5
0.5
0.5
0.5
0.5
0.5
0.5
0.5
0.5
0.5
0.5
0.5
0.5
0.5
0.5
0.5
0.5
0.5
0.5
0.5
0.5
0.5
0.5
0.5
0.5
0.5
0.5
0.5
0.5
0.5
0.5
0.5
0.5
0.5
0.5
0.5
0.5
0.5
0.5
0.5
0.5
0.5
0.5
0.5
0.5
0.5
0.5
0.5
0.5
0.5
0.5
0.5
0.5
0.5
0.5
0.5
0.5
0.5
0.5
0.5
0.5
0.5
0.5
0.5
0.5
0.5
0.5
0.5
0.5
0.5
0.5
0.5
0.5
0.5
0.5
0.5
0.5
0.5
0.5
0.5
0.5
0.5
0.5
0.5
0.5
0.5
0.5
0.5
0.5
0.5
0.5
0.5
0.5
0.5
0.5
0.5
0.5
0.5
0.5
0.5
0.5
0.5
0.5
0.5
0.5
0.5
0.5
0.5
0.5
0.5
0.5
0.5
0.5
0.5
0.5
0.5
0.5
0.5
0.5
0.5
0.5
0.5
0.5
0.5
0.5
0.5
0.5
0.5
0.5
0.5
0.5
0.5
0.5
0.5
0.5
0.5
0.5
0.5
0.5
0.5
0.5
0.5
0.5
0.5
0.5
0.5
0.5
0.5
0.5
0.5
0.5
0.5
0.5
0.5
0.5
0.5
0.5
0.5
0.5
0.5
0.5
0.5
0.5
0.5
0.5
0.5
0.5
0.5
0.5
0.5
0.5
0.5
0.5
0.5
0.5
0.5
0.5
0.5
0.5
0.5
0.5
0.5
0.5
0.5
0.5
0.5
0.5
0.5
0.5
0.5
0.5
0.5
0.5
0.5
0.5
0.5
0.5
0.5
0.5
0.5
0.5
0.5
0.5
0.5
0.5
0.5
0.5
0.5
0.5
0.5
0.5
0.5
0.5
0.5
0.5
0.5
0.5
0.5
0.5
0.5
0.5
0.5
0.5
0.5
0.5
0.5
0.5
0.5
0.5
0.5
0.5
0.5
0.5
0.5
0.5
0.5
0.5
0.5
0.5
0.5
0.5
0.5
0.5
0.5
0.5
0.5
0.5
0.5
0.5
0.5
0.5
0.5
0.5
0.5
0.5
0.5
0.5
0.5
0.5
0.5
0.5
0.5
0.5
0.5
0.5
0.5
0.5
0.5
0.5
0.5
0.5
0.5
0.5
0.5
0.5
0.5
0.5
0.5
0.5
0.5
0.5
0.5
0.5
0.5
0.5
0.5
0.5
0.5
0.5
0.5
0.5
0.5
0.5
0.5
0.5
0.5
0.5
0.5
0.5
0.5
0.5
0.5
0.5
0.5
0.5
0.5
0.5
0.5
0.5
0.5
0.5
0.5
0.5
0.5
0.5
0.5
0.5
0.5
0.5
0.5
0.5
0.5
0.5
0.5
0.5
0.5
0.5
0.5
0.5
0.5
0.5
0.5
0.5
0.5
0.5
0.5
0.5
0.5
0.5
0.5
0.5
0.5
0.5
0.5
0.5
0.5
0.5
0.5
0.5
0.5
0.5
0.5
0.5
0.5
0.5
0.5
0.5
0.5
0.5
0.5
0.5
0.5
0.5
0.5
0.5
0.5
0.5
0.5
0.5
0.5
0.5
0.5
0.5
0.5
0.5
0.5
0.5
0.5
0.5
0.5
0.5
0.5
0.5
0.5
0.5
0.5
0.5
0.5
0.5
0.5
0.5
0.5
0.5
0.5
0.5
0.5
0.5
0.5
0.5
0.5
0.5
0.5
0.5
0.5
0.5
0.5
0.5
0.5
0.5
0.5
0.5
0.5
0.5
0.5
0.5
SCALARS quat double 4
LOOKUP_TABLE default
0.963293 0.0900888 -0.0528037 0.247312 
0.782645 0.153585 0.60318 0.00721762 
0.98939 0.0859696 -0.0701437 -0.0937894 
-0.371961 -0.472145 -0.558773 -0.571399 
0.0579304 0.712468 -0.369482 0.593731 
0.802831 -0.272007 -0.20048 0.491205 
0.133772 -0.322948 -0.282624 0.893271 
0.88202 0.0397924 0.331868 0.332145 
-0.109957 0.433285 0.894447 -0.0118 
0.112227 0.0884236 -0.0246374 0.989434 
0.917305 -0.149085 -0.100057 0.355408 
0.179321 -0.914299 -0.240504 -0.272138 
0.0979315 0.396299 -0.0380309 0.912091 
0.590255 0.718695 0.355177 -0.0944791 
0.339906 0.814573 -0.172785 0.437127 
0.996163 0.080275 -0.0347207 -0.00296551 
0.641149 0.0466573 -0.0441786 0.764722 
0.985584 0.0825635 -0.0158243 0.146826 
0.972079 0.112902 -0.0898815 0.185032 
-0.77254 0.145142 0.609992 0.100131 
0.837778 0.119635 0.507043 -0.163468 
-0.328097 0.836255 -0.299353 0.321587 
0.795472 -0.229083 -0.496511 -0.261194 
0.549631 0.739327 -0.366305 -0.130853 
0.984059 0.105078 -0.098868 0.103981 
0.935403 0.155474 -0.170262 0.268068 
-0.581481 0.726001 -0.29908 0.212964 
0.979365 0.164711 -0.0812405 -0.0843529 
0.643016 -0.448008 -0.423497 0.45439 
-0.163424 0.394385 -0.328455 0.842538 
0.732535 0.356218 0.508476 0.279202 
0.416758 -0.651087 -0.14529 -0.617486 
0.110233 -0.0558073 -0.956385 0.264692 
0.180532 0.124748 0.0725692 0.972923 
0.566098 0.72042 0.195908 -0.349497 
0.391928 -0.142094 0.0680636 0.906405 
-0.285655 0.488837 -0.478778 0.670978 
0.233712 0.337731 0.272393 0.870125 
0.724454 -0.635854 -0.258122 0.0650322 
0.574339 0.650572 -0.0994349 -0.48683 
0.946296 0.151465 -0.159263 0.237104 
0.704348 0.200221 -0.0992301 0.673764 
0.978795 -0.200347 -0.0388728 0.0176304 
0.0124018 0.818524 0.553375 -0.153756 
0.720776 -0.577053 -0.331198 -0.194421 
0.369615 0.281436 -0.693052 0.551232 
0.557384 -0.176862 0.174155 -0.792283 
-0.948442 0.155289 -0.176346 0.212707 
0.45016 0.756341 -0.365863 0.302406 
-0.838932 0.509961 0.105513 -0.15811 
0.927616 0.296833 -0.205362 -0.0961496 
0.329466 -0.12031 0.896527 -0.270585 
0.825457 -0.0749641 0.559461 -0.00199036 
-0.672357 0.420221 -0.608641 -0.0301122 
-0.498394 0.503286 0.479871 -0.517717 
-0.613624 0.464336 0.484205 -0.416418 
0.143778 0.209665 0.95906 -0.124787 
0.117785 -0.0357463 -0.831486 -0.541738 
-0.185582 0.0271351 0.786424 -0.588524 
0.352414 -0.910042 -0.215964 0.0314311 
-0.45046 0.231823 0.663549 -0.550497 
-0.86008 -0.0614217 0.101274 0.496219 
-0.279152 -0.713699 0.135402 0.627992 
0.0802732 0.240667 0.960032 0.118209 
-0.103962 0.0340548 0.992671 -0.0513512 
0.920794 0.244052 -0.265432 -0.148735 
-0.131307 -0.953356 -0.173655 0.209083 
0.964861 -0.15554 -0.127932 0.168771 
0.895903 0.00139573 0.404955 -0.182664 
-0.916709 -0.10154 -0.120091 -0.367303 
0.629448 -0.344676 -0.238136 0.654435 
-0.556155 -0.752163 -0.343374 -0.0838908 
0.35996 0.355353 0.0356897 -0.861904 
-0.587449 0.745304 -0.293173 -0.116084 
0.946007 -0.248355 0.019968 -0.207345 
0.960356 0.117788 -0.120612 -0.222023 
0.531054 -0.104587 -0.635744 0.550339 
0.881036 -0.250387 0.384722 -0.114328 
-0.55621 -0.209841 -0.127892 0.793877 
-0.550312 0.177523 -0.11443 -0.807804 
0.88538 0.277166 -0.00454787 -0.373176 
-0.371581 0.88619 -0.0169903 0.276236 
0.951123 -0.0950799 0.277363 -0.0969291 
-0.234196 0.820907 -0.276058 0.441652 
0.979349 -0.183821 0.000848213 -0.0841723 
0.763987 -0.469 -0.409349 0.169695 
-0.17781 -0.316742 0.12197 -0.923678 
0.805207 0.376937 0.293358 -0.351428 
0.318541 0.92578 0.0731014 -0.190048 
-0.169667 0.557199 -0.647541 0.491358 
0.868723 -0.211925 0.35517 -0.272511 
-0.814505 0.371784 -0.44524 0.0109749 
0.889394 -0.0177241 -0.382599 0.249563 
0.853893 -0.350208 0.383922 0.0287135 
0.793587 0.0222053 0.365653 -0.485824 
0.360965 -0.534756 -0.329495 -0.689328 
0.315519 -0.785791 0.470756 0.247729 
0.223908 -0.203198 -0.7245 0.619416 
-0.605947 0.592255 0.135309 -0.513571 
0.983076 -0.0984505 -0.0185183 -0.15338 
0.842596 -0.0745398 -0.106227 -0.522678 
0.281604 0.535211 0.740682 0.292641 
-0.00761843 0.437175 -0.897997 0.0492172 
-0.631764 -0.592208 -0.493555 -0.0810416 
-0.221076 -0.0883924 -0.368905 0.898455 
0.938387 -0.157097 0.263941 0.158382 
-0.724388 0.544893 0.192345 -0.375975 
0.119748 0.729424 0.667315 -0.0910614 
0.819049 0.400158 -0.0791755 -0.403441 
0.0186496 0.212422 -0.974876 0.0643905 
0.27995 -0.591058 -0.28257 0.701735 
-0.430098 -0.305209 0.631598 0.568285 
-0.0796315 -0.415596 0.26235 -0.867243 
0.809808 -0.268586 0.48992 0.179026 
-0.231772 0.0675358 0.0940051 0.965859 
0.958339 -0.14911 0.227859 0.0862153 
0.0362324 -0.803614 0.586796 0.0925357 
0.459523 -0.0793206 -0.395792 0.791135 
0.886626 0.0987065 0.0915686 0.442456 
0.252199 0.150736 -0.813488 0.501907 
-0.00469271 0.0720695 0.472953 -0.878122 
-0.135094 -0.257794 -0.726752 0.622193 
0.339169 -0.454218 -0.418189 -0.709766 
-0.934729 -0.223042 -0.177829 0.211922 
0.760219 -0.601629 0.016873 0.244593 
0.779771 0.291181 -0.531501 -0.15709 
0.410757 0.639409 0.552976 -0.341545 
0.520027 0.289785 0.184067 -0.782122 
-0.48727 0.268581 0.811766 -0.177394 
0.443588 -0.446444 0.702788 0.331672 
-0.0120708 0.489141 0.731241 -0.475271 
-0.991636 -0.0507209 -0.0506719 0.107323 
-0.0335664 -0.58522 -0.810169 0.00407628 
0.211131 0.204056 -0.94944 0.111122 
0.126762 -0.901482 0.243571 0.334567 
0.119694 -0.082962 0.815007 0.560851 
0.280627 0.733069 0.224433 0.577484 
-0.683226 -0.721895 0.0650776 -0.0885133 
0.319246 0.909457 -0.17594 -0.200037 
-0.0409079 0.811928 -0.582072 0.01709 
-0.557422 0.106624 -0.822696 0.0329156 
0.441215 -0.250111 0.32026 0.80013 
-0.0918202 0.501138 -0.10214 0.854399 
0.935608 -0.269886 -0.1863 0.130733 
0.0243368 -0.505157 -0.782364 -0.363498 
-0.446391 -0.834985 0.239556 0.214819 
0.738507 -0.499273 0.351816 -0.285586 