# vtk DataFile Version 2.0
Generated by NetDEM
ASCII 
DATASET POLYDATA
POINTS 500 double
-0.421679 -0.393488 -0.462386 
-0.450002 -0.189557 -0.450015 
-0.405178 -0.0121575 -0.4629 
-0.449864 0.107481 -0.45005 
-0.450096 0.349942 -0.450037 
-0.29283 -0.437508 -0.459208 
-0.356646 -0.226246 -0.450014 
-0.187842 -0.00490531 -0.450015 
-0.173303 0.179074 -0.463984 
-0.256062 0.369698 -0.464518 
-0.0457338 -0.403307 -0.464112 
-0.152024 -0.130104 -0.450036 
-0.0505799 -0.091468 -0.450103 
0.0393349 0.180282 -0.453067 
-0.0270716 0.32028 -0.443946 
0.192076 -0.408216 -0.464073 
0.165961 -0.208419 -0.463294 
0.169886 -0.0069869 -0.463959 
0.161835 0.203423 -0.464244 
0.293552 0.407912 -0.420714 
0.448042 -0.412421 -0.450033 
0.435019 -0.292314 -0.45001 
0.343571 -0.012687 -0.450028 
0.373792 0.0865389 -0.450022 
0.372636 0.441348 -0.46476 
-0.439387 -0.400508 -0.393632 
-0.450004 -0.278919 -0.405143 
-0.408501 -0.0115213 -0.391311 
-0.440975 0.178713 -0.380431 
-0.449436 0.45005 -0.450057 
-0.350502 -0.391773 -0.396299 
-0.270571 -0.0991196 -0.450007 
-0.165552 -0.103147 -0.226957 
-0.304612 0.165989 -0.465044 
-0.154322 0.406608 -0.452891 
-0.0993789 -0.362593 -0.408033 
0.296689 -0.251407 -0.151829 
-0.0526554 -0.0151821 -0.316592 
0.0326015 0.260817 -0.452467 
0.129825 0.303938 -0.445067 
0.194745 -0.423909 -0.392408 
0.167679 -0.212104 -0.391787 
0.177383 0.0273112 -0.388933 
0.195172 0.113599 -0.45505 
0.287402 0.365055 -0.330586 
0.373235 -0.450007 -0.39536 
0.436408 -0.35316 -0.37035 
0.269689 -0.212549 -0.450007 
0.449977 0.151721 -0.450007 
0.425723 0.340818 -0.456572 
-0.437098 -0.44042 -0.330919 
-0.27788 -0.207865 -0.391218 
-0.298813 -0.000669654 -0.438854 
-0.285864 0.276064 -0.450015 
-0.449329 0.279826 -0.378906 
-0.199379 -0.378513 -0.453253 
0.196945 -0.354293 -0.310252 
-0.246301 -0.0444058 -0.215506 
-0.170265 0.0805091 -0.451648 
-0.348684 0.333931 -0.344932 
0.0500596 -0.439306 -0.450952 
0.206273 -0.275439 -0.196782 
0.202856 0.0537145 -0.226236 
-0.0376558 0.225884 -0.396691 
0.253548 0.333785 -0.463352 
0.18291 -0.449672 -0.323724 
0.0557739 -0.100202 -0.451888 
0.159357 0.0689799 -0.330613 
0.267815 0.0668119 -0.442381 
0.115322 0.133046 -0.391279 
0.286767 -0.45 -0.450007 
0.372678 -0.208891 -0.450034 
0.37565 -0.108437 -0.45005 
0.449574 0.217101 -0.369673 
0.436148 0.254173 -0.460576 
-0.429286 -0.452619 -0.246133 
-0.196906 -0.155107 -0.364205 
-0.241023 0.00477386 -0.356748 
-0.263789 0.0931694 -0.410459 
-0.345429 0.143028 -0.370671 
-0.169983 -0.44727 -0.41333 
-0.12279 -0.0538318 -0.39212 
-0.222415 0.0489762 -0.24569 
-0.0561927 0.131422 -0.449117 
-0.366036 0.381144 -0.414944 
0.0739945 -0.46001 -0.352117 
0.445189 -0.345517 -0.109468 
-0.199009 -0.225771 -0.450018 
0.0146311 0.047626 -0.450662 
0.0713751 0.397466 -0.415576 
0.25439 -0.443832 -0.255104 
0.147501 -0.327228 -0.401475 
0.112213 0.0766419 -0.274019 
0.266832 0.171749 -0.434787 
0.140126 0.44998 -0.450011 
0.350606 -0.309268 -0.399153 
0.450002 -0.105639 -0.38322 
0.38564 0.141759 -0.354518 
0.330925 0.314451 -0.409993 
0.437999 0.370964 -0.378607 
-0.381814 -0.439257 -0.175497 
-0.364176 -0.349242 -0.144479 
-0.295545 -0.042499 -0.295605 
-0.35686 0.0721287 -0.440287 
-0.450047 0.436934 -0.350896 
-0.292431 -0.429131 -0.357087 
-0.0765961 -0.142521 -0.367881 
-0.241355 0.0338647 -0.148679 
-0.000709213 -0.0276132 -0.388554 
-0.432284 0.251652 -0.458684 
0.0761362 -0.349652 -0.441435 
0.357517 -0.201952 -0.0896961 
0.0565044 -0.121973 -0.363214 
0.0296026 0.043485 -0.360358 
-0.00445428 0.431537 -0.462456 
0.294994 -0.387843 -0.231731 
0.256322 -0.311939 -0.446338 
0.0293435 0.0688888 -0.270073 
0.255474 0.246926 -0.387969 
0.343769 0.450011 -0.281219 
0.296813 -0.391865 -0.367446 
0.450071 -0.213929 -0.386958 
0.449933 -0.0312485 -0.450068 
0.349541 0.215976 -0.411191 
0.402192 0.452063 -0.375711 
-0.461141 -0.451347 -0.137522 
-0.320134 -0.141423 -0.329578 
-0.450997 -0.0272667 -0.322675 
-0.253834 0.198171 -0.396138 
-0.302082 0.449995 -0.389272 
-0.170004 -0.38716 -0.349959 
-0.0800144 -0.199414 -0.450094 
-0.205815 -0.166479 -0.160891 
-0.137006 0.15111 -0.402232 
-0.226023 0.341414 -0.395475 
-0.0457821 -0.282922 -0.451129 
0.273302 -0.324024 -0.0864246 
0.450001 0.0524764 -0.179836 
0.031225 0.127765 -0.337723 
-0.117991 0.312898 -0.415136 
0.132941 -0.450887 -0.261782 
0.23978 -0.142039 -0.404532 
0.0927922 -0.0272145 -0.24317 
0.195426 0.306512 -0.344591 
0.198328 0.387306 -0.398208 
0.450002 -0.444436 -0.331526 
0.326761 -0.170417 -0.369837 
0.254446 -0.0582447 -0.450051 
0.450005 0.054227 -0.393932 
0.440459 0.409523 -0.302255 
-0.43173 -0.458256 -0.0269405 
-0.238148 -0.176232 -0.275598 
-0.423352 -0.104389 -0.411622 
-0.208971 0.269505 -0.342337 
-0.358303 0.240069 -0.390661 
-0.170142 -0.289049 -0.370543 
0.142184 -0.450003 -0.120392 
-0.30275 0.369458 -0.200656 
-0.106954 0.274706 -0.334334 
-0.22342 0.462949 -0.451401 
0.00590033 -0.314788 -0.360453 
0.11311 -0.243319 -0.167885 
-0.188014 -0.0669063 -0.317363 
0.0135615 0.203676 -0.30835 
0.020194 0.299371 -0.356133 
0.0484412 -0.417524 -0.278635 
0.143147 -0.102764 -0.404379 
0.252362 -0.114722 -0.26959 
0.247284 0.189615 -0.320068 
0.136866 0.449754 -0.349916 
0.384005 -0.230201 -0.313795 
0.35059 -0.0635998 -0.364257 
0.320877 0.0484275 -0.37422 
0.418189 0.298803 -0.311018 
0.446675 0.380889 -0.217588 
-0.300022 -0.435857 -0.129069 
-0.449884 -0.102933 -0.272473 
-0.358817 0.00948841 -0.283237 
-0.450011 0.0732099 -0.356106 
-0.414479 0.265116 -0.286411 
-0.282207 -0.29993 -0.448464 
-0.183315 -0.266337 -0.254578 
-0.142423 0.396826 -0.0935219 
-0.122142 0.189224 -0.33744 
-0.131292 0.440713 -0.360023 
-0.00631651 -0.420933 -0.366853 
0.016668 -0.0877319 -0.278139 
0.0444676 -0.206879 -0.450007 
-0.022146 0.274159 -0.261065 
-0.000533962 0.400934 -0.372048 
0.0604244 -0.440579 -0.178171 
0.105167 -0.0422414 -0.350881 
0.284109 -0.158738 -0.199314 
0.199109 0.136724 -0.278642 
0.244325 0.449985 -0.299927 
0.449909 -0.305565 -0.283458 
0.450019 -0.152803 -0.295171 
0.365564 0.0382979 -0.285324 
0.326068 0.262236 -0.324236 
0.384048 0.429601 -0.207811 
-0.250611 -0.445493 -0.200245 
-0.432717 0.222519 -0.197521 
-0.289973 0.185694 -0.20498 
-0.14983 0.0578482 -0.352115 
-0.360653 0.45003 -0.308207 
-0.220462 -0.34194 -0.273984 
-0.0350113 -0.231905 -0.351534 
0.0182462 -0.261678 -0.272368 
-0.102623 0.108656 -0.255163 
-0.15972 0.348122 -0.332661 
-0.0476891 -0.378901 -0.304146 
-0.208177 -0.090146 0.0914241 
-0.0365882 0.208783 -0.17932 
-0.0602069 0.0979495 -0.341529 
0.109074 0.351059 -0.339472 
0.235423 -0.425907 -0.160721 
0.219747 -0.19951 -0.31698 
0.289555 -0.101245 -0.139515 
0.154354 0.220708 -0.303904 
0.189 0.361267 -0.271434 
0.402675 -0.394225 -0.259149 
0.440362 -0.224236 -0.225975 
0.447091 -0.0217298 -0.328937 
0.299978 0.113704 -0.301439 
0.413404 0.401738 -0.132489 
-0.254704 -0.336046 -0.185031 
-0.427414 -0.321837 -0.317698 
-0.441303 0.345849 -0.135401 
-0.345195 0.326477 -0.0763963 
-0.448696 0.409847 -0.037147 
-0.141392 -0.419339 -0.281403 
-0.049849 0.139826 -0.0918765 
-0.256755 -0.171629 -0.0750109 
-0.179152 0.173492 -0.211603 
-0.159193 0.340929 -0.226899 
-0.0715958 -0.386428 -0.221784 
-0.141936 -0.14012 -0.0511945 
-0.119734 -0.0153394 -0.242397 
-0.0184207 0.108237 -0.209999 
0.0329955 0.447926 -0.288377 
0.294381 -0.332005 -0.18382 
0.254281 -0.306058 -0.35692 
0.348915 -0.0423292 -0.0948251 
0.143516 0.276422 -0.240894 
0.213604 0.381679 -0.170929 
0.355104 -0.450011 -0.18921 
0.449602 -0.202941 -0.128622 
0.34458 0.12552 -0.0331221 
0.446913 0.151903 -0.189941 
0.423151 0.367731 -0.0526114 
-0.326385 -0.326015 -0.315429 
-0.127957 -0.198731 -0.303124 
-0.329537 -0.0124904 -0.17674 
-0.223698 0.188762 -0.285236 
-0.420381 0.448783 -0.227978 
-0.254573 -0.43314 -0.292218 
0.123862 -0.344328 -0.242693 
-0.307913 0.253108 -0.149345 
-0.245086 0.298511 -0.221983 
-0.147968 0.443423 -0.258269 
0.00121385 -0.375307 -0.188809 
0.450008 -0.392539 -0.0213608 
0.0765031 0.447824 -0.192816 
-0.0746342 0.405845 -0.32988 
-0.0415638 0.449567 -0.232128 
0.357237 -0.385686 -0.114754 
0.371267 -0.0965653 -0.178848 
0.182969 -0.0228143 -0.29355 
0.214834 0.203445 -0.216643 
0.0956789 0.245239 -0.372053 
0.350185 -0.309183 -0.262452 
0.350504 -0.150434 -0.263621 
0.449999 0.0907031 -0.297134 
0.449999 0.211951 -0.269854 
0.403242 0.453079 -0.0521405 
-0.342365 -0.394572 -0.0255932 
-0.14979 -0.344048 -0.201329 
-0.435192 -0.114859 -0.188126 
-0.45001 0.0997688 -0.20003 
-0.337103 0.201929 -0.290283 
-0.151039 -0.44563 -0.199186 
-0.083665 -0.287169 -0.283931 
-0.224775 0.448119 -0.32588 
-0.282439 0.310381 -0.291851 
-0.227602 0.434948 -0.200791 
0.0527935 -0.402772 -0.100245 
-0.117815 0.449998 0.102573 
0.0365389 0.18442 -0.115622 
-0.072661 0.310612 -0.21623 
0.0108359 0.367193 -0.228265 
0.267813 -0.419567 -0.0627152 
0.0328622 -0.0957896 -0.0410428 
0.143463 -0.0430332 -0.164306 
0.285002 0.176819 -0.162308 
0.0495429 0.260145 -0.193378 
0.389183 -0.291362 -0.172145 
0.448964 -0.128622 -0.198014 
0.325234 -0.0516786 -0.268267 
0.450012 0.28584 -0.202494 
0.300312 0.414565 -0.113335 
-0.286716 -0.348591 -0.0831638 
-0.431128 0.00295352 -0.226166 
-0.393684 -0.275351 -0.114142 
-0.429396 0.143157 -0.287704 
-0.449989 0.450006 -0.1287 
-0.112504 -0.434902 -0.108249 
-0.123621 -0.329358 -0.103582 
-0.285347 0.0879118 -0.312905 
-0.136439 0.274496 -0.137517 
-0.240432 0.389798 -0.118224 
-0.0125228 -0.418803 -0.0275666 
-0.411336 -0.181633 -0.338 
-0.0023484 -0.00130801 -0.231185 
-0.0393448 0.296471 -0.125257 
-0.00994107 0.443414 -0.144667 
0.144701 -0.374394 -0.0478826 
0.447351 0.00419244 0.00215046 
0.0733952 -0.0261144 -0.101776 
0.304349 0.333045 -0.245902 
0.278893 0.449412 -0.204861 
0.372929 -0.449978 -0.0537241 
0.428852 -0.0511673 0.0695876 
0.239544 -0.0521546 -0.351385 
0.346633 0.258335 -0.21194 
0.440643 0.443148 0.0361362 
-0.351953 -0.198335 -0.0701313 
-0.387372 -0.29531 -0.225407 
-0.405287 0.0963144 -0.125916 
-0.383165 0.310043 -0.202346 
-0.449914 0.358567 -0.288898 
-0.169267 -0.439367 0.0136986 
-0.0711152 -0.126679 -0.250273 
-0.222773 0.295728 -0.118782 
-0.102687 0.393125 -0.181499 
-0.0717222 0.435403 -0.063303 
-0.0857275 -0.450613 0.00187527 
0.0784721 -0.183232 -0.28726 
-0.0774266 0.0625428 -0.149018 
0.0386115 0.252361 -0.0613261 
0.0111357 0.420462 -0.0774338 
0.160228 -0.345769 -0.12708 
0.179276 -0.189764 -0.235953 
0.108336 0.164498 -0.237601 
0.309605 0.219484 -0.0796527 
0.169853 0.449993 -0.229412 
0.449994 -0.420938 -0.174959 
0.320543 -0.257971 -0.0155976 
0.421061 -0.027385 -0.232555 
0.36422 0.165651 -0.245103 
0.414346 0.26746 0.0694246 
-0.419909 -0.379357 0.022038 
-0.450007 -0.223578 -0.255884 
-0.365171 0.213682 -0.0983943 
-0.448604 0.0488491 -0.0384352 
-0.450008 0.18241 -0.107576 
-0.215827 -0.38026 -0.0360727 
-0.280381 -0.0976538 -0.138037 
-0.334397 -0.106816 -0.229714 
-0.188758 0.349505 -0.0300226 
-0.13073 0.401424 0.00516756 
0.0318001 -0.191522 -0.153452 
-0.153626 -0.251769 -0.160206 
0.219342 0.116304 -0.129488 
0.0882322 0.333148 -0.116249 
-0.0200466 0.43982 0.016693 
0.0891083 -0.219755 -0.0639482 
0.457031 -0.0648621 -0.126474 
0.282978 0.0654558 -0.0589202 
0.176211 0.223231 -0.136523 
0.101534 0.330871 0.0232858 
0.39577 -0.0876885 -0.0382591 
0.449998 -0.267181 -0.0475149 
0.359991 0.0120538 -0.163243 
0.417605 0.112333 -0.100348 
0.321066 0.326988 -0.146212 
-0.422823 -0.1942 -0.166318 
-0.450003 -0.222646 -0.0693628 
-0.402318 -0.0145385 -0.130249 
-0.449996 0.276017 0.023569 
-0.340169 0.450001 -0.154448 
-0.233992 -0.301163 0.0348358 
-0.268708 -0.264818 -0.0408052 
-0.329373 0.0667053 -0.0803332 
-0.122324 0.217854 -0.0686237 
-0.123942 0.187209 -0.00192192 
0.0258133 -0.309569 -0.0537513 
-0.1154 -0.103711 -0.140466 
0.107421 0.113923 -0.112843 
-0.159673 0.0995124 -0.144053 
0.0467894 0.399618 0.076917 
0.036439 -0.28958 -0.159553 
0.281585 -0.0711475 -0.0372667 
0.263085 0.0268767 -0.129112 
0.181688 0.287344 -0.0629037 
0.111199 0.349351 -0.201384 
0.323919 -0.345136 0.033277 
0.257177 -0.180347 -0.0936098 
0.41771 0.194945 -0.0408284 
0.400567 0.243461 -0.126608 
0.435977 0.283915 -0.038857 
-0.335901 -0.334238 0.0532422 
-0.339351 -0.239361 -0.299446 
-0.451401 -0.0785352 -0.070664 
-0.449977 0.115959 0.0626419 
-0.273622 0.369571 -0.0214884 
-0.0641311 -0.188172 -0.188778 
-0.177047 -0.232895 -0.0648453 
-0.262401 -0.0256129 -0.0710567 
-0.280525 0.224255 -0.0416704 
-0.209158 0.41697 0.0479879 
0.198972 -0.0648447 -0.111555 
-0.000950173 -0.0873233 -0.179715 
-0.13507 -0.0285711 0.0620368 
-0.0315509 0.24724 -0.000137732 
-0.0778836 0.342222 0.0515454 
0.313822 -0.441633 0.0442653 
0.330949 -0.22017 0.0711331 
0.172996 0.0353917 -0.141322 
0.263235 0.281915 -0.0305141 
0.235926 0.450001 -0.0508169 
0.449934 -0.170307 -0.0227578 
0.317782 0.354395 -0.0428555 
0.44992 0.0891774 -0.00696251 
0.435981 0.167775 0.0547066 
0.373573 0.358368 0.0539109 
-0.400816 -0.375501 0.112641 
-0.412592 -0.262168 0.0145263 
-0.192363 -0.0606916 -0.122098 
-0.450004 0.279452 -0.076464 
-0.38438 0.35072 0.0123564 
-0.206215 -0.39104 0.0639215 
-0.287852 -0.0511358 0.0244542 
-0.0434631 -0.024838 -0.114239 
-0.275108 0.131829 -0.13136 
-0.287663 0.392124 0.0968569 
0.186749 -0.452936 -0.0209929 
0.113853 -0.14022 -0.175452 
0.026156 0.0569793 -0.131519 
-0.0852864 0.107615 0.0318842 
-0.0416496 0.40075 0.116199 
0.311651 -0.418938 0.141343 
0.199456 -0.121154 -0.020304 
0.102513 0.194679 -0.0512259 
0.260352 0.171575 0.101557 
0.149459 0.413981 -0.10134 
0.411302 -0.450002 0.0507404 
0.337536 -0.159606 -0.000321542 
-0.218645 0.099489 -0.0720682 
0.348041 0.226667 0.0247395 
0.323755 0.443654 0.012577 
-0.441778 -0.449927 0.116402 
-0.27711 0.0457866 0.0023214 
-0.384211 -0.0168286 -0.0225074 
-0.409919 0.143007 -0.0249022 
-0.449995 0.413679 0.0627612 
-0.293672 -0.445586 0.0391286 
-0.236375 -0.155978 0.0216315 
-0.177874 0.0345657 -0.00261464 
-0.320618 0.127135 0.00969448 
-0.390369 0.402696 0.149042 
0.234208 -0.237278 0.0842772 
-0.0462889 -0.143563 -0.0801984 
-0.0932883 0.0583133 -0.0503615 
0.0196225 0.341634 -0.0282907 
0.0119137 0.303483 0.0699679 
0.192692 -0.25033 -0.0997875 
0.209652 -0.278203 -0.00560832 
0.181395 -0.00360166 -0.0466602 
0.188534 0.172491 -0.0378942 
0.0881776 0.425391 -0.0152322 
0.419574 -0.349688 0.063704 
0.449821 -0.148832 0.0749024 
0.343073 0.00607861 -0.00956374 
0.267553 0.168102 0.014378 
0.455826 0.351506 0.0872491 
-0.313952 -0.299229 0.118673 
-0.195006 -0.0663748 -0.00942119 
-0.429175 -0.0207119 0.076204 
-0.365479 0.222969 0.0154836 
-0.354924 0.448768 -0.055552 
-0.168281 -0.238343 0.0290775 
-0.184928 -0.18626 0.106302 
-0.0890318 -0.0387435 -0.0263328 
-0.303142 0.297669 0.0439144 
-0.207194 0.240534 0.024932 
-0.0429411 -0.1183 0.012129 
-0.0425129 -0.242969 -0.125408 
0.0137972 0.00756548 -0.0389385 
0.232602 -0.167385 0.0285143 
0.0131042 0.448726 0.184745 
0.21629 -0.367965 0.0326748 
0.444223 -0.291654 0.126842 
0.300375 0.0632408 0.0535376 
0.184308 0.250199 0.0400307 
0.186458 0.374493 -0.00646633 
0.402048 -0.409669 0.141772 
0.45 -0.206154 0.157089 
0.319538 -0.0709577 0.0582243 
0.398271 0.0746525 0.0779047 
0.241625 0.430067 0.063185 
VERTICES 500 1000
1 0
1 1
1 2
1 3
1 4
1 5
1 6
1 7
1 8
1 9
1 10
1 11
1 12
1 13
1 14
1 15
1 16
1 17
1 18
1 19
1 20
1 21
1 22
1 23
1 24
1 25
1 26
1 27
1 28
1 29
1 30
1 31
1 32
1 33
1 34
1 35
1 36
1 37
1 38
1 39
1 40
1 41
1 42
1 43
1 44
1 45
1 46
1 47
1 48
1 49
1 50
1 51
1 52
1 53
1 54
1 55
1 56
1 57
1 58
1 59
1 60
1 61
1 62
1 63
1 64
1 65
1 66
1 67
1 68
1 69
1 70
1 71
1 72
1 73
1 74
1 75
1 76
1 77
1 78
1 79
1 80
1 81
1 82
1 83
1 84
1 85
1 86
1 87
1 88
1 89
1 90
1 91
1 92
1 93
1 94
1 95
1 96
1 97
1 98
1 99
1 100
1 101
1 102
1 103
1 104
1 105
1 106
1 107
1 108
1 109
1 110
1 111
1 112
1 113
1 114
1 115
1 116
1 117
1 118
1 119
1 120
1 121
1 122
1 123
1 124
1 125
1 126
1 127
1 128
1 129
1 130
1 131
1 132
1 133
1 134
1 135
1 136
1 137
1 138
1 139
1 140
1 141
1 142
1 143
1 144
1 145
1 146
1 147
1 148
1 149
1 150
1 151
1 152
1 153
1 154
1 155
1 156
1 157
1 158
1 159
1 160
1 161
1 162
1 163
1 164
1 165
1 166
1 167
1 168
1 169
1 170
1 171
1 172
1 173
1 174
1 175
1 176
1 177
1 178
1 179
1 180
1 181
1 182
1 183
1 184
1 185
1 186
1 187
1 188
1 189
1 190
1 191
1 192
1 193
1 194
1 195
1 196
1 197
1 198
1 199
1 200
1 201
1 202
1 203
1 204
1 205
1 206
1 207
1 208
1 209
1 210
1 211
1 212
1 213
1 214
1 215
1 216
1 217
1 218
1 219
1 220
1 221
1 222
1 223
1 224
1 225
1 226
1 227
1 228
1 229
1 230
1 231
1 232
1 233
1 234
1 235
1 236
1 237
1 238
1 239
1 240
1 241
1 242
1 243
1 244
1 245
1 246
1 247
1 248
1 249
1 250
1 251
1 252
1 253
1 254
1 255
1 256
1 257
1 258
1 259
1 260
1 261
1 262
1 263
1 264
1 265
1 266
1 267
1 268
1 269
1 270
1 271
1 272
1 273
1 274
1 275
1 276
1 277
1 278
1 279
1 280
1 281
1 282
1 283
1 284
1 285
1 286
1 287
1 288
1 289
1 290
1 291
1 292
1 293
1 294
1 295
1 296
1 297
1 298
1 299
1 300
1 301
1 302
1 303
1 304
1 305
1 306
1 307
1 308
1 309
1 310
1 311
1 312
1 313
1 314
1 315
1 316
1 317
1 318
1 319
1 320
1 321
1 322
1 323
1 324
1 325
1 326
1 327
1 328
1 329
1 330
1 331
1 332
1 333
1 334
1 335
1 336
1 337
1 338
1 339
1 340
1 341
1 342
1 343
1 344
1 345
1 346
1 347
1 348
1 349
1 350
1 351
1 352
1 353
1 354
1 355
1 356
1 357
1 358
1 359
1 360
1 361
1 362
1 363
1 364
1 365
1 366
1 367
1 368
1 369
1 370
1 371
1 372
1 373
1 374
1 375
1 376
1 377
1 378
1 379
1 380
1 381
1 382
1 383
1 384
1 385
1 386
1 387
1 388
1 389
1 390
1 391
1 392
1 393
1 394
1 395
1 396
1 397
1 398
1 399
1 400
1 401
1 402
1 403
1 404
1 405
1 406
1 407
1 408
1 409
1 410
1 411
1 412
1 413
1 414
1 415
1 416
1 417
1 418
1 419
1 420
1 421
1 422
1 423
1 424
1 425
1 426
1 427
1 428
1 429
1 430
1 431
1 432
1 433
1 434
1 435
1 436
1 437
1 438
1 439
1 440
1 441
1 442
1 443
1 444
1 445
1 446
1 447
1 448
1 449
1 450
1 451
1 452
1 453
1 454
1 455
1 456
1 457
1 458
1 459
1 460
1 461
1 462
1 463
1 464
1 465
1 466
1 467
1 468
1 469
1 470
1 471
1 472
1 473
1 474
1 475
1 476
1 477
1 478
1 479
1 480
1 481
1 482
1 483
1 484
1 485
1 486
1 487
1 488
1 489
1 490
1 491
1 492
1 493
1 494
1 495
1 496
1 497
1 498
1 499
POINT_DATA 500
SCALARS id int 1
LOOKUP_TABLE default
0
1
2
3
4
5
6
7
8
9
10
11
12
13
14
15
16
17
18
19
20
21
22
23
24
25
26
27
28
29
30
31
32
33
34
35
36
37
38
39
40
41
42
43
44
45
46
47
48
49
50
51
52
53
54
55
56
57
58
59
60
61
62
63
64
65
66
67
68
69
70
71
72
73
74
75
76
77
78
79
80
81
82
83
84
85
86
87
88
89
90
91
92
93
94
95
96
97
98
99
100
101
102
103
104
105
106
107
108
109
110
111
112
113
114
115
116
117
118
119
120
121
122
123
124
125
126
127
128
129
130
131
132
133
134
135
136
137
138
139
140
141
142
143
144
145
146
147
148
149
150
151
152
153
154
155
156
157
158
159
160
161
162
163
164
165
166
167
168
169
170
171
172
173
174
175
176
177
178
179
180
181
182
183
184
185
186
187
188
189
190
191
192
193
194
195
196
197
198
199
200
201
202
203
204
205
206
207
208
209
210
211
212
213
214
215
216
217
218
219
220
221
222
223
224
225
226
227
228
229
230
231
232
233
234
235
236
237
238
239
240
241
242
243
244
245
246
247
248
249
250
251
252
253
254
255
256
257
258
259
260
261
262
263
264
265
266
267
268
269
270
271
272
273
274
275
276
277
278
279
280
281
282
283
284
285
286
287
288
289
290
291
292
293
294
295
296
297
298
299
300
301
302
303
304
305
306
307
308
309
310
311
312
313
314
315
316
317
318
319
320
321
322
323
324
325
326
327
328
329
330
331
332
333
334
335
336
337
338
339
340
341
342
343
344
345
346
347
348
349
350
351
352
353
354
355
356
357
358
359
360
361
362
363
364
365
366
367
368
369
370
371
372
373
374
375
376
377
378
379
380
381
382
383
384
385
386
387
388
389
390
391
392
393
394
395
396
397
398
399
400
401
402
403
404
405
406
407
408
409
410
411
412
413
414
415
416
417
418
419
420
421
422
423
424
425
426
427
428
429
430
431
432
433
434
435
436
437
438
439
440
441
442
443
444
445
446
447
448
449
450
451
452
453
454
455
456
457
458
459
460
461
462
463
464
465
466
467
468
469
470
471
472
473
474
475
476
477
478
479
480
481
482
483
484
485
486
487
488
489
490
491
492
493
494
495
496
497
498
499
SCALARS type int 1
LOOKUP_TABLE default
0
0
0
0
0
0
0
0
0
0
0
0
0
0
0
0
0
0
0
0
0
0
0
0
0
0
0
0
0
0
0
0
0
0
0
0
0
0
0
0
0
0
0
0
0
0
0
0
0
0
0
0
0
0
0
0
0
0
0
0
0
0
0
0
0
0
0
0
0
0
0
0
0
0
0
0
0
0
0
0
0
0
0
0
0
0
0
0
0
0
0
0
0
0
0
0
0
0
0
0
0
0
0
0
0
0
0
0
0
0
0
0
0
0
0
0
0
0
0
0
0
0
0
0
0
0
0
0
0
0
0
0
0
0
0
0
0
0
0
0
0
0
0
0
0
0
0
0
0
0
0
0
0
0
0
0
0
0
0
0
0
0
0
0
0
0
0
0
0
0
0
0
0
0
0
0
0
0
0
0
0
0
0
0
0
0
0
0
0
0
0
0
0
0
0
0
0
0
0
0
0
0
0
0
0
0
0
0
0
0
0
0
0
0
0
0
0
0
0
0
0
0
0
0
0
0
0
0
0
0
0
0
0
0
0
0
0
0
0
0
0
0
0
0
0
0
0
0
0
0
0
0
0
0
0
0
0
0
0
0
0
0
0
0
0
0
0
0
0
0
0
0
0
0
0
0
0
0
0
0
0
0
0
0
0
0
0
0
0
0
0
0
0
0
0
0
0
0
0
0
0
0
0
0
0
0
0
0
0
0
0
0
0
0
0
0
0
0
0
0
0
0
0
0
0
0
0
0
0
0
0
0
0
0
0
0
0
0
0
0
0
0
0
0
0
0
0
0
0
0
0
0
0
0
0
0
0
0
0
0
0
0
0
0
0
0
0
0
0
0
0
0
0
0
0
0
0
0
0
0
0
0
0
0
0
0
0
0
0
0
0
0
0
0
0
0
0
0
0
0
0
0
0
0
0
0
0
0
0
0
0
0
0
0
0
0
0
0
0
0
0
0
0
0
0
0
0
0
0
0
0
0
0
0
0
0
0
0
0
0
0
0
0
0
0
0
0
0
0
0
0
0
0
0
0
0
0
0
0
0
0
0
0
0
0
0
0
0
0
0
0
0
0
0
0
0
0
0
0
0
0
0
0
0
0
0
0
0
0
0
0
0
0
0
0
0
0
0
0
0
SCALARS damp_viscous double 1
LOOKUP_TABLE default
0
0
0
0
0
0
0
0
0
0
0
0
0
0
0
0
0
0
0
0
0
0
0
0
0
0
0
0
0
0
0
0
0
0
0
0
0
0
0
0
0
0
0
0
0
0
0
0
0
0
0
0
0
0
0
0
0
0
0
0
0
0
0
0
0
0
0
0
0
0
0
0
0
0
0
0
0
0
0
0
0
0
0
0
0
0
0
0
0
0
0
0
0
0
0
0
0
0
0
0
0
0
0
0
0
0
0
0
0
0
0
0
0
0
0
0
0
0
0
0
0
0
0
0
0
0
0
0
0
0
0
0
0
0
0
0
0
0
0
0
0
0
0
0
0
0
0
0
0
0
0
0
0
0
0
0
0
0
0
0
0
0
0
0
0
0
0
0
0
0
0
0
0
0
0
0
0
0
0
0
0
0
0
0
0
0
0
0
0
0
0
0
0
0
0
0
0
0
0
0
0
0
0
0
0
0
0
0
0
0
0
0
0
0
0
0
0
0
0
0
0
0
0
0
0
0
0
0
0
0
0
0
0
0
0
0
0
0
0
0
0
0
0
0
0
0
0
0
0
0
0
0
0
0
0
0
0
0
0
0
0
0
0
0
0
0
0
0
0
0
0
0
0
0
0
0
0
0
0
0
0
0
0
0
0
0
0
0
0
0
0
0
0
0
0
0
0
0
0
0
0
0
0
0
0
0
0
0
0
0
0
0
0
0
0
0
0
0
0
0
0
0
0
0
0
0
0
0
0
0
0
0
0
0
0
0
0
0
0
0
0
0
0
0
0
0
0
0
0
0
0
0
0
0
0
0
0
0
0
0
0
0
0
0
0
0
0
0
0
0
0
0
0
0
0
0
0
0
0
0
0
0
0
0
0
0
0
0
0
0
0
0
0
0
0
0
0
0
0
0
0
0
0
0
0
0
0
0
0
0
0
0
0
0
0
0
0
0
0
0
0
0
0
0
0
0
0
0
0
0
0
0
0
0
0
0
0
0
0
0
0
0
0
0
0
0
0
0
0
0
0
0
0
0
0
0
0
0
0
0
0
0
0
0
0
0
0
0
0
0
0
0
0
0
0
0
0
0
0
0
0
0
0
0
0
0
0
0
0
0
0
0
0
0
0
0
0
0
0
0
SCALARS damp_numerical double 1
LOOKUP_TABLE default
0.5
0.5
0.5
0.5
0.5
0.5
0.5
0.5
0.5
0.5
0.5
0.5
0.5
0.5
0.5
0.5
0.5
0.5
0.5
0.5
0.5
0.5
0.5
0.5
0.5
0.5
0.5
0.5
0.5
0.5
0.5
0.5
0.5
0.5
0.5
0.5
0.5
0.5
0.5
0.5
0.5
0.5
0.5
0.5
0.5
0.5
0.5
0.5
0.5
0.5
0.5
0.5
0.5
0.5
0.5
0.5
0.5
0.5
0.5
0.5
0.5
0.5
0.5
0.5
0.5
0.5
0.5
0.5
0.5
0.5
0.5
0.5
0.5
0.5
0.5
0.5
0.5
0.5
0.5
0.5
0.5
0.5
0.5
0.5
0.5
0.5
0.5
0.5
0.5
0.5
0.5
0.5
0.5
0.5
0.5
0.5
0.5
0.5
0.5
0.5
0.5
0.5
0.5
0.5
0.5
0.5
0.5
0.5
0.5
0.5
0.5
0.5
0.5
0.5
0.5
0.5
0.5
0.5
0.5
0.5
0.5
0.5
0.5
0.5
0.5
0.5
0.5
0.5
0.5
0.5
0.5
0.5
0.5
0.5
0.5
0.5
0.5
0.5
0.5
0.5
0.5
0.5
0.5
0.5
0.5
0.5
0.5
0.5
0.5
0.5
0.5
0.5
0.5
0.5
0.5
0.5
0.5
0.5
0.5
0.5
0.5
0.5
0.5
0.5
0.5
0.5
0.5
0.5
0.5
0.5
0.5
0.5
0.5
0.5
0.5
0.5
0.5
0.5
0.5
0.5
0.5
0.5
0.5
0.5
0.5
0.5
0.5
0.5
0.5
0.5
0.5
0.5
0.5
0.5
0.5
0.5
0.5
0.5
0.5
0.5
0.5
0.5
0.5
0.5
0.5
0.5
0.5
0.5
0.5
0.5
0.5
0.5
0.5
0.5
0.5
0.5
0.5
0.5
0.5
0.5
0.5
0.5
0.5
0.5
0.5
0.5
0.5
0.5
0.5
0.5
0.5
0.5
0.5
0.5
0.5
0.5
0.5
0.5
0.5
0.5
0.5
0.5
0.5
0.5
0.5
0.5
0.5
0.5
0.5
0.5
0.5
0.5
0.5
0.5
0.5
0.5
0.5
0.5
0.5
0.5
0.5
0.5
0.5
0.5
0.5
0.5
0.5
0.5
0.5
0.5
0.5
0.5
0.5
0.5
0.5
0.5
0.5
0.5
0.5
0.5
0.5
0.5
0.5
0.5
0.5
0.5
0.5
0.5
0.5
0.5
0.5
0.5
0.5
0.5
0.5
0.5
0.5
0.5
0.5
0.5
0.5
0.5
0.5
0.5
0.5
0.5
0.5
0.5
0.5
0.5
0.5
0.5
0.5
0.5
0.5
0.5
0.5
0.5
0.5
0.5
0.5
0.5
0.5
0.5
0.5
0.5
0.5
0.5
0.5
0.5
0.5
0.5
0.5
0.5
0.5
0.5
0.5
0.5
0.5
0.5
0.5
0.5
0.5
0.5
0.5
0.5
0.5
0.5
0.5
0.5
0.5
0.5
0.5
0.5
0.5
0.5
0.5
0.5
0.5
0.5
0.5
0.5
0.5
0.5
0.5
0.5
0.5
0.5
0.5
0.5
0.5
0.5
0.5
0.5
0.5
0.5
0.5
0.5
0.5
0.5
0.5
0.5
0.5
0.5
0.5
0.5
0.5
0.5
0.5
0.5
0.5
0.5
0.5
0.5
0.5
0.5
0.5
0.5
0.5
0.5
0.5
0.5
0.5
0.5
0.5
0.5
0.5
0.5
0.5
0.5
0.5
0.5
0.5
0.5
0.5
0.5
0.5
0.5
0.5
0.5
0.5
0.5
0.5
0.5
0.5
0.5
0.5
0.5
0.5
0.5
0.5
0.5
0.5
0.5
0.5
0.5
0.5
0.5
0.5
0.5
0.5
0.5
0.5
0.5
0.5
0.5
0.5
0.5
0.5
0.5
0.5
0.5
0.5
0.5
0.5
0.5
0.5
0.5
0.5
0.5
0.5
0.5
0.5
0.5
0.5
0.5
0.5
0.5
0.5
0.5
0.5
0.5
0.5
0.5
0.5
0.5
0.5
0.5
0.5
0.5
0.5
0.5
0.5
0.5
0.5
0.5
0.5
0.5
0.5
0.5
0.5
0.5
0.5
0.5
0.5
0.5
0.5
0.5
0.5
0.5
SCALARS quat double 4
LOOKUP_TABLE default
0.785104 0.00211271 -0.0671655 0.615707 
0.792573 0.09731 0.601961 0.00117176 
0.98981 0.074312 -0.0460021 -0.112416 
-0.364417 -0.502816 -0.531977 -0.575653 
0.127023 0.532232 -0.54044 0.639155 
0.809011 -0.267588 -0.194276 0.485957 
0.344366 -0.783594 -0.142119 0.497186 
0.884893 0.0305825 0.386461 0.25822 
-0.0972086 0.442646 0.891094 -0.0237955 
0.0394112 0.0975302 0.0438632 0.993484 
0.856903 0.160385 -0.0574976 0.486507 
0.0613602 -0.930836 -0.0670423 -0.353957 
0.199567 0.443403 -0.0678523 0.871185 
0.60671 0.696222 0.369643 -0.102674 
0.321782 0.830382 -0.207417 0.404847 
0.990978 0.0951341 -0.0703485 0.0629489 
0.715834 0.0541671 -0.00945348 0.696102 
0.987333 0.0865404 -0.0648187 0.116114 
0.977111 0.123897 -0.108305 0.13481 
-0.715406 0.235562 0.652757 0.0813258 
0.824085 0.200706 0.481753 -0.22026 
-0.254089 0.894384 -0.214154 0.299422 
0.810853 -0.249865 -0.43378 -0.303182 
0.49428 0.765462 -0.401705 -0.0915883 
0.984046 0.083952 -0.0925521 0.126644 
0.817894 0.156343 -0.211079 0.51191 
-0.728791 0.551149 -0.387457 0.122378 
0.968887 0.114713 -0.191153 -0.10751 
0.863677 -0.226556 -0.417826 0.167794 
-0.161764 0.380434 -0.329346 0.848901 
0.655672 0.470536 0.481917 0.341242 
-0.177062 -0.57629 -0.565021 -0.563285 
0.274175 0.0089865 -0.899934 0.338919 
0.0795532 0.116422 0.0850213 0.986351 
0.532057 0.760562 0.140392 -0.344603 
0.527313 -0.425497 -0.0239272 0.735065 
-0.171993 0.545918 -0.429692 0.698396 
0.276109 0.216089 0.219525 0.910427 
0.746207 -0.620882 -0.21231 0.112276 
0.567182 0.595694 -0.152024 -0.548035 
0.923775 0.157833 -0.191904 0.29138 
0.693755 0.1894 -0.0658007 0.691738 
0.988169 -0.105395 -0.108569 -0.025044 
-0.0159043 0.843445 0.510221 -0.1674 
0.81288 -0.511375 -0.201249 -0.192929 
0.26416 0.275849 -0.649508 0.657469 
0.549526 -0.155467 0.112251 -0.813174 
-0.952023 0.204668 -0.176756 0.143251 
0.362039 0.687112 -0.5601 0.288257 
-0.864118 0.487589 0.0668869 -0.10528 
0.905745 0.35212 -0.185823 -0.145284 
-0.223855 0.457976 0.828993 -0.23004 
0.720915 0.0665797 0.616046 -0.31038 
-0.617115 0.436622 -0.654201 0.0234732 
-0.458123 0.573592 0.401245 -0.54783 
-0.339251 0.580096 0.727463 -0.138547 
-0.172476 0.221338 0.899134 -0.335887 
0.0417796 -0.0494369 -0.89354 -0.444294 
-0.169532 0.113503 0.717822 -0.665663 
0.332693 -0.922895 -0.155444 0.115836 
-0.407852 0.308085 0.693945 -0.50713 
-0.883638 -0.122323 0.0541918 0.448647 
-0.295928 -0.705501 0.133086 0.630066 
0.154476 0.158822 0.96312 0.152683 
-0.073018 0.0415901 0.992677 -0.0867814 
0.895184 0.294157 -0.324381 -0.0830311 
0.00255195 -0.965844 -0.166756 0.198323 
0.958893 -0.172291 -0.153089 0.165541 
0.891139 0.0556844 0.395593 -0.215118 
-0.964505 0.0930588 0.0176916 -0.246489 
0.689194 -0.637154 -0.195312 0.28443 
-0.63956 -0.650509 -0.384438 -0.141452 
0.25403 0.375528 -0.0112183 -0.891247 
-0.646758 0.667483 -0.325312 -0.174191 
0.954872 -0.202252 0.00719449 -0.217399 
0.952396 0.0816401 -0.0715781 -0.284876 
0.636204 -0.0624598 -0.661051 0.392881 
0.889112 -0.333113 0.312776 -0.0261921 
-0.692836 -0.224955 0.0159356 0.684923 
-0.596761 0.366827 -0.0622115 -0.710945 
0.950957 0.0344581 0.305483 -0.0342618 
-0.238754 0.912721 0.00400852 0.331542 
0.737235 -0.0286234 0.673913 -0.0388095 
-0.24068 0.843163 -0.279313 0.391322 
0.938641 -0.301389 0.157037 -0.0587956 
0.782574 -0.549738 -0.273865 0.101808 
-0.0730293 -0.467269 -0.0954475 -0.875909 
0.736094 0.380544 0.0495672 -0.557579 
0.330132 0.929309 0.060451 -0.154088 
-0.292465 0.580325 -0.680049 0.33944 
0.812391 -0.359124 0.418031 -0.19053 
-0.832875 0.344397 -0.40729 0.147734 
0.866939 -0.0283027 -0.439107 0.234096 
0.74329 -0.523118 0.408262 0.0847885 
0.789939 0.0525632 0.330082 -0.514082 
0.287736 -0.573858 -0.530534 -0.55356 
0.236225 -0.757683 0.551627 0.256559 
0.346948 -0.0288003 -0.91322 0.211722 
-0.551665 0.602472 0.327832 -0.474574 
0.97909 -0.157848 -0.0374509 -0.122737 
0.829023 -0.154199 -0.0875529 -0.530357 
0.449702 0.43708 0.754647 0.192968 
-0.214414 0.428761 -0.877539 -0.0107437 
-0.517011 -0.487893 -0.691218 0.129912 
-0.20498 -0.0811255 -0.532485 0.817228 
0.860681 0.259579 0.153964 0.410052 
-0.877143 0.355428 0.237364 -0.218973 
0.537195 0.663316 0.42156 0.306138 
0.884845 0.284901 -0.134389 -0.343249 
-0.0761504 0.24946 -0.947878 0.183024 
-0.0335191 -0.55125 -0.643692 0.529774 
-0.509551 -0.168108 0.784704 0.310383 
-0.0807683 -0.202507 0.11965 -0.968582 
0.85156 -0.237635 0.397638 0.245477 
-0.299739 0.0374931 0.0062061 0.953264 
0.900428 -0.362357 0.211261 -0.115308 
0.216265 -0.730004 0.604251 0.234957 
0.37169 -0.0936887 -0.466281 0.797277 
0.848769 -0.0167085 0.193106 0.491957 
0.176433 0.119198 -0.811768 0.543779 
0.0403102 0.369279 0.295899 -0.880029 
-0.150785 -0.288588 -0.821439 0.468208 
0.331074 -0.458355 -0.414073 -0.713333 
-0.895888 -0.253442 -0.259431 0.256606 
0.793835 -0.564893 0.00987157 0.224998 
0.759822 0.348822 -0.519948 -0.175063 
0.440125 0.543316 0.56925 -0.432495 
0.529701 0.266252 0.196127 -0.781064 
-0.415392 0.118019 0.896741 -0.096835 
0.462359 -0.396483 0.694231 0.383496 
-0.0317194 0.185162 0.946123 -0.263742 
-0.961432 0.039035 -0.132052 -0.238091 
-0.164923 -0.63235 -0.724031 -0.22071 
0.242892 0.183476 -0.952348 -0.0193409 
0.136736 -0.914886 0.240915 0.293678 
0.0751501 -0.15035 0.764406 0.622439 
0.167912 0.694705 0.337275 0.612728 
-0.8025 -0.54961 0.136534 -0.187833 
0.341278 0.916741 -0.15792 -0.134822 
-0.108263 0.806285 -0.581508 0.00565361 
-0.407341 0.138492 -0.891439 0.142228 
0.316125 -0.426936 0.165464 0.830911 
-0.14575 0.515919 -0.270969 0.799475 
0.947501 -0.257011 -0.173563 0.0778708 
-0.00747349 -0.513098 -0.790984 -0.333196 
-0.355808 -0.863152 0.209374 0.290744 
0.526318 -0.644339 0.38491 -0.399576 