# vtk DataFile Version 2.0
Generated by NetDEM
ASCII 
DATASET POLYDATA
POINTS 350 double
-0.419341 -0.405774 -0.463702 
-0.425377 -0.20342 -0.407661 
-0.408582 -0.0059682 -0.463022 
-0.447854 0.131966 -0.450007 
-0.449976 0.361657 -0.448357 
-0.269189 -0.430679 -0.459334 
-0.245045 -0.20613 -0.399585 
-0.198808 -0.00671782 -0.412923 
-0.171713 0.172882 -0.463841 
-0.252822 0.36784 -0.463821 
-0.0431021 -0.406099 -0.460589 
-0.0773337 -0.170214 -0.42629 
-0.0304943 -0.0499529 -0.416186 
0.034877 0.181286 -0.453092 
-0.0220414 0.323936 -0.427193 
0.194473 -0.399387 -0.461701 
0.172556 -0.207277 -0.462456 
0.173748 -0.00940228 -0.46177 
0.159855 0.209924 -0.465044 
0.309408 0.418935 -0.402556 
0.423251 -0.401674 -0.450007 
0.408032 -0.296256 -0.45003 
0.340031 -0.00969901 -0.450009 
0.382329 0.0913388 -0.450021 
0.370115 0.438175 -0.465054 
-0.413335 -0.401802 -0.383278 
-0.435939 -0.199994 -0.0405537 
-0.393785 -0.00391718 -0.385208 
-0.449992 0.175886 -0.360001 
-0.449163 0.448226 -0.352359 
-0.31895 -0.410805 -0.396041 
-0.212322 -0.199188 -0.147381 
-0.14202 -0.0806331 0.143221 
-0.301663 0.1608 -0.465044 
-0.145304 0.398254 -0.441791 
-0.0701373 -0.413673 -0.390441 
0.0960468 -0.215064 0.100944 
0.0116215 0.0226706 -0.0538039 
0.021314 0.254154 -0.443946 
0.117947 0.294399 -0.408391 
0.208402 -0.405864 -0.389208 
0.17771 -0.198819 -0.389107 
0.184725 -0.00330859 -0.382788 
0.196857 0.11235 -0.455715 
0.298424 0.399215 -0.305145 
0.401522 -0.44999 -0.365193 
0.415569 -0.348913 -0.365379 
0.282043 -0.182842 -0.450007 
0.450011 0.136981 -0.39228 
0.423307 0.339022 -0.455175 
-0.415875 -0.417467 -0.300056 
-0.317663 -0.203374 -0.0448818 
-0.347195 0.00593522 -0.317201 
-0.256726 0.247006 -0.426751 
-0.439828 0.274906 -0.347906 
-0.183031 -0.371033 -0.452366 
0.00169858 -0.220477 -0.00450308 
-0.179932 -0.0873918 0.242097 
-0.155326 0.139199 -0.38357 
-0.34517 0.334838 -0.301388 
0.0354617 -0.433735 -0.38825 
0.221565 -0.328902 0.376834 
0.0667842 0.0663879 0.102172 
-0.0306056 0.224003 -0.361742 
0.250463 0.343357 -0.458965 
0.198558 -0.416063 -0.31469 
0.0925762 -0.119328 -0.43141 
0.179054 0.030756 -0.314154 
0.274779 0.0667171 -0.44351 
0.120544 0.179554 -0.361378 
0.311903 -0.448153 -0.318808 
0.381372 -0.199792 -0.444409 
0.377199 -0.0920505 -0.407158 
0.449803 0.23294 -0.364148 
0.439232 0.255807 -0.459781 
-0.423772 -0.428261 -0.2064 
-0.296378 -0.205569 0.0578944 
-0.313502 0.0251449 -0.249485 
-0.247037 0.192931 -0.326247 
-0.350737 0.163862 -0.212188 
-0.158108 -0.445433 -0.387283 
-0.225145 -0.172158 -0.0129114 
-0.264066 0.0489915 0.230004 
-0.0681503 0.150099 -0.424981 
-0.355987 0.404709 -0.367285 
0.0974445 -0.445325 -0.313322 
0.308524 -0.292891 0.170843 
-0.0992131 -0.156875 -0.0757683 
0.02854 0.0852696 -0.449131 
0.0727585 0.389206 -0.379752 
0.238152 -0.42035 -0.226188 
0.173338 -0.269984 -0.351777 
0.168721 0.0407334 -0.242876 
0.259995 0.178245 -0.444181 
0.154531 0.45 -0.450007 
0.35961 -0.320921 -0.287387 
0.449994 -0.107023 -0.340234 
0.384382 0.167292 -0.323194 
0.326481 0.30862 -0.408515 
0.424237 0.363321 -0.372859 
-0.408105 -0.43754 -0.11274 
-0.430013 -0.2616 0.0522733 
-0.375326 0.000523112 -0.170593 
-0.386306 0.0984951 -0.293612 
-0.449834 0.379299 -0.277941 
-0.253131 -0.42076 -0.345582 
-0.21146 -0.210756 0.111717 
-0.190159 0.0209118 0.291241 
-0.0715071 0.0681322 -0.312177 
-0.43491 0.259298 -0.43599 
0.0673792 -0.349164 -0.329227 
0.100842 -0.159565 0.257432 
-0.0134826 -0.0526358 0.0130421 
-0.00328542 0.140713 -0.305099 
-0.038378 0.438452 -0.387508 
0.256508 -0.390096 -0.160356 
0.264789 -0.29468 -0.307733 
0.137902 0.0403859 -0.175434 
0.233391 0.231191 -0.373444 
0.360288 0.449991 -0.226831 
0.347655 -0.407015 -0.23188 
0.449917 -0.203307 -0.371667 
0.433085 0.0124166 -0.414289 
0.327083 0.209802 -0.39325 
0.397706 0.450122 -0.347182 
-0.460155 -0.452075 -0.0248744 
-0.338041 -0.230288 0.157416 
-0.459657 -0.0201475 -0.164796 
-0.238699 0.195764 -0.226301 
-0.332101 0.438048 -0.264536 
-0.1608 -0.417558 -0.300391 
-0.104456 -0.260419 0.0388012 
-0.155088 -0.157666 0.313441 
-0.113704 0.163733 -0.232876 
-0.235579 0.319221 -0.322934 
-0.0761709 -0.33568 -0.334233 
0.355603 -0.33193 0.304878 
0.194558 0.0205439 0.118687 
0.0470637 0.160638 -0.241192 
-0.0988175 0.319811 -0.36228 
0.200906 -0.407569 -0.0797313 
0.23976 -0.167872 -0.305605 
0.15072 0.00839616 -0.0782107 
0.201424 0.306642 -0.321704 
0.201423 0.39336 -0.381942 
0.416067 -0.449823 -0.172806 
0.361887 -0.164334 -0.336227 
0.29483 -0.0538567 -0.358831 
0.449889 0.0648764 -0.322997 
0.436641 0.400868 -0.279022 
-0.422957 -0.45001 0.118285 
-0.266182 -0.192929 0.280169 
-0.450148 -0.0502032 -0.0693111 
-0.211703 0.283861 -0.187479 
-0.313085 0.297729 -0.221211 
-0.121903 -0.374752 -0.226523 
0.0788559 -0.312444 0.193865 
-0.317693 0.239664 0.176429 
-0.105464 0.264091 -0.201022 
-0.224665 0.424897 -0.376255 
-0.0170286 -0.360285 -0.252878 
0.101594 -0.206046 0.356103 
-0.0465523 -0.058505 0.109679 
0.0448891 0.179817 -0.152242 
-0.0140019 0.297355 -0.271084 
0.0955189 -0.450524 -0.0491374 
0.162687 -0.128826 -0.2419 
0.221283 -0.0473407 -0.013779 
0.223146 0.187885 -0.312023 
0.153739 0.448638 -0.263705 
0.390348 -0.230444 -0.257622 
0.370936 -0.0930764 -0.266107 
0.325538 0.0637759 -0.37247 
0.397204 0.299637 -0.297594 
0.445978 0.378783 -0.182589 
-0.300363 -0.438086 0.120793 
-0.449211 -0.167456 0.144501 
-0.399626 -0.00374214 -0.0225602 
-0.449919 0.138376 -0.210643 
-0.409177 0.280144 -0.246495 
-0.258889 -0.387847 -0.275374 
-0.147704 -0.318938 0.13095 
-0.21865 0.210007 0.228619 
-0.125792 0.194015 -0.137329 
-0.154352 0.439137 -0.243595 
0.0426698 -0.441794 -0.247344 
-0.0685255 -0.108473 0.205496 
-0.0836606 -0.193929 0.144191 
-0.0328715 0.245878 -0.112839 
-0.038361 0.431567 -0.277456 
0.100786 -0.442376 0.0522647 
0.153805 -0.129638 -0.145891 
0.257007 -0.110549 0.0470055 
0.209221 0.153891 -0.240272 
0.248775 0.449994 -0.232578 
0.413503 -0.312345 -0.200712 
0.42565 -0.172399 -0.184122 
0.365775 0.051664 -0.23331 
0.314993 0.240726 -0.298496 
0.385211 0.436654 -0.142425 
-0.228396 -0.403766 0.0883282 
-0.449828 0.12692 0.0259969 
-0.305737 0.120796 0.0108733 
-0.252617 0.0998665 -0.201633 
-0.415036 0.449892 -0.205203 
-0.217858 -0.402835 -0.185064 
-0.0578621 -0.338321 0.0913566 
-0.0335997 -0.232345 0.240371 
-0.171307 0.137026 -0.0523478 
-0.186762 0.36296 -0.158178 
0.00398945 -0.411976 -0.173647 
0.0947776 -0.360106 0.44531 
0.0202844 0.145486 0.150597 
-0.0406901 0.177121 -0.0443999 
0.0894662 0.358708 -0.196756 
0.158108 -0.397295 0.116789 
0.198404 -0.186216 -0.0780813 
0.278295 -0.108326 0.139637 
0.156532 0.229118 -0.253783 
0.197552 0.347129 -0.214329 
0.405521 -0.369831 -0.113682 
0.408628 -0.268943 -0.110399 
0.419906 -0.0318865 -0.203452 
0.321321 0.139535 -0.25072 
0.40625 0.402263 -0.0757928 
-0.220678 -0.338276 0.190558 
-0.448999 -0.268279 0.347772 
-0.437411 0.320435 0.187941 
-0.357986 0.290323 0.355266 
-0.41161 0.404888 0.419878 
-0.164591 -0.403744 -0.115032 
-0.0960043 -0.248493 0.434513 
-0.153901 -0.0141584 0.434046 
-0.203183 0.178641 0.0257086 
-0.218597 0.34756 -0.0518354 
-0.0162887 -0.396701 -0.0899216 
-0.0282363 -0.14528 0.438049 
0.0112357 0.103182 0.380382 
0.0221108 0.148088 0.0391831 
-0.000465714 0.414529 -0.111125 
0.272529 -0.392606 0.143971 
0.213207 -0.317025 -0.0516212 
0.254685 -0.0270352 0.196924 
0.177233 0.251729 -0.164371 
0.197328 0.397798 0.402783 
0.38542 -0.449918 0.0488116 
0.449729 -0.204565 0.163297 
0.324278 0.0301377 0.443513 
0.374074 0.304658 0.401406 
0.413425 0.397175 0.00764468 
-0.345008 -0.340661 0.23517 
-0.170489 -0.203609 0.203374 
-0.334505 -0.0362246 0.239165 
-0.265205 0.190949 -0.129564 
-0.349456 0.449958 -0.0646375 
-0.21419 -0.403189 -0.0340306 
0.0200665 -0.255084 0.322161 
-0.217702 0.0619038 0.388633 
-0.210273 0.274083 0.0928198 
-0.194669 0.431081 -0.0126962 
-0.00321396 -0.394394 -0.000896279 
0.450011 -0.353748 0.279792 
0.0879837 0.388729 0.154235 
-0.0496451 0.270655 0.034102 
-0.0153416 0.423423 0.0117698 
0.319012 -0.437989 0.180077 
0.352159 -0.149613 0.0804616 
0.182848 0.0136674 0.245962 
0.221943 0.19367 -0.0890509 
0.0842115 0.267231 -0.305848 
0.394147 -0.306918 -0.0166653 
0.391585 -0.170832 -0.0900522 
0.398561 0.0586393 -0.139077 
0.43511 0.217314 -0.25302 
0.393103 0.431642 0.087315 
-0.45121 -0.4485 0.294708 
-0.205006 -0.23829 0.356743 
-0.439907 -0.10705 0.379494 
-0.449881 0.0688036 0.124077 
-0.352395 0.240507 -0.144942 
-0.131154 -0.431584 0.0916085 
-0.0559822 -0.333014 0.203232 
-0.402271 0.448485 0.330069 
-0.261179 0.331452 0.0305819 
-0.190557 0.402681 0.106105 
-7.20361e-05 -0.414702 0.0882004 
-0.0293945 0.012846 0.394048 
0.0391385 0.140002 0.248651 
-0.0345414 0.249531 0.129121 
0.0132178 0.402306 0.089259 
0.265692 -0.442409 0.309065 
0.169115 -0.279718 0.443915 
0.10038 0.0281018 0.279083 
0.202925 0.175588 0.0338746 
0.125764 0.192391 0.0850813 
0.397934 -0.264914 0.0743282 
0.406932 -0.190381 0.00680595 
0.373688 -0.0743129 -0.115309 
0.449135 0.296535 0.00327787 
0.387078 0.410529 0.174765 
-0.43223 -0.439333 0.414352 
-0.42727 -0.0654495 0.215608 
-0.368169 -0.0105131 0.427408 
-0.427727 0.16107 -0.110917 
-0.444245 0.449861 -0.000919034 
-0.177855 -0.426614 0.224219 
-0.0414785 -0.339956 0.411319 
-0.306367 0.226937 0.274976 
-0.101229 0.216846 0.363814 
-0.213365 0.396149 0.218508 
-0.000844689 -0.413755 0.183647 
-0.264605 -0.0696301 0.345361 
-0.0438707 -0.0624294 0.291643 
-0.00892481 0.23739 0.277293 
-0.0113632 0.399676 0.171415 
0.0901176 -0.444773 0.414144 
0.362462 -0.0955428 0.427702 
0.143961 -0.0308297 0.435294 
0.309891 0.330815 0.0210246 
0.295415 0.44994 0.152183 
0.396293 -0.40459 0.393953 
0.417179 -0.179651 0.431917 
0.265325 0.0607858 -0.205273 
0.366494 0.31587 0.159602 
0.415336 0.426309 0.28328 
-0.309877 -0.390936 0.429071 
-0.347849 -0.221521 0.333297 
-0.434123 0.0524042 0.233594 
-0.418696 0.209348 0.226897 
-0.363822 0.319749 0.0674408 
-0.109482 -0.431587 0.330535 
-0.0658042 -0.197728 0.353352 
-0.323891 0.190665 0.391802 
-0.144277 0.31642 0.149505 
-0.203446 0.391264 0.334825 
-0.00347918 -0.404966 0.274444 
0.0464058 -0.0581345 0.339943 
0.00310919 0.0469287 0.260105 
0.00669001 0.210639 0.378013 
-0.0044976 0.397189 0.271528 
0.200552 -0.439697 0.405857 
0.327234 -0.227528 0.362928 
0.171881 -0.00203468 0.362408 
0.197198 0.197198 0.19731 
0.20999 0.399876 0.111825 
0.449987 -0.440643 0.131869 
0.449555 -0.290882 0.367401 
0.396488 -0.00351175 0.196601 
0.396508 0.196508 0.196621 
0.39352 0.414398 0.426575 
VERTICES 350 700
1 0
1 1
1 2
1 3
1 4
1 5
1 6
1 7
1 8
1 9
1 10
1 11
1 12
1 13
1 14
1 15
1 16
1 17
1 18
1 19
1 20
1 21
1 22
1 23
1 24
1 25
1 26
1 27
1 28
1 29
1 30
1 31
1 32
1 33
1 34
1 35
1 36
1 37
1 38
1 39
1 40
1 41
1 42
1 43
1 44
1 45
1 46
1 47
1 48
1 49
1 50
1 51
1 52
1 53
1 54
1 55
1 56
1 57
1 58
1 59
1 60
1 61
1 62
1 63
1 64
1 65
1 66
1 67
1 68
1 69
1 70
1 71
1 72
1 73
1 74
1 75
1 76
1 77
1 78
1 79
1 80
1 81
1 82
1 83
1 84
1 85
1 86
1 87
1 88
1 89
1 90
1 91
1 92
1 93
1 94
1 95
1 96
1 97
1 98
1 99
1 100
1 101
1 102
1 103
1 104
1 105
1 106
1 107
1 108
1 109
1 110
1 111
1 112
1 113
1 114
1 115
1 116
1 117
1 118
1 119
1 120
1 121
1 122
1 123
1 124
1 125
1 126
1 127
1 128
1 129
1 130
1 131
1 132
1 133
1 134
1 135
1 136
1 137
1 138
1 139
1 140
1 141
1 142
1 143
1 144
1 145
1 146
1 147
1 148
1 149
1 150
1 151
1 152
1 153
1 154
1 155
1 156
1 157
1 158
1 159
1 160
1 161
1 162
1 163
1 164
1 165
1 166
1 167
1 168
1 169
1 170
1 171
1 172
1 173
1 174
1 175
1 176
1 177
1 178
1 179
1 180
1 181
1 182
1 183
1 184
1 185
1 186
1 187
1 188
1 189
1 190
1 191
1 192
1 193
1 194
1 195
1 196
1 197
1 198
1 199
1 200
1 201
1 202
1 203
1 204
1 205
1 206
1 207
1 208
1 209
1 210
1 211
1 212
1 213
1 214
1 215
1 216
1 217
1 218
1 219
1 220
1 221
1 222
1 223
1 224
1 225
1 226
1 227
1 228
1 229
1 230
1 231
1 232
1 233
1 234
1 235
1 236
1 237
1 238
1 239
1 240
1 241
1 242
1 243
1 244
1 245
1 246
1 247
1 248
1 249
1 250
1 251
1 252
1 253
1 254
1 255
1 256
1 257
1 258
1 259
1 260
1 261
1 262
1 263
1 264
1 265
1 266
1 267
1 268
1 269
1 270
1 271
1 272
1 273
1 274
1 275
1 276
1 277
1 278
1 279
1 280
1 281
1 282
1 283
1 284
1 285
1 286
1 287
1 288
1 289
1 290
1 291
1 292
1 293
1 294
1 295
1 296
1 297
1 298
1 299
1 300
1 301
1 302
1 303
1 304
1 305
1 306
1 307
1 308
1 309
1 310
1 311
1 312
1 313
1 314
1 315
1 316
1 317
1 318
1 319
1 320
1 321
1 322
1 323
1 324
1 325
1 326
1 327
1 328
1 329
1 330
1 331
1 332
1 333
1 334
1 335
1 336
1 337
1 338
1 339
1 340
1 341
1 342
1 343
1 344
1 345
1 346
1 347
1 348
1 349
POINT_DATA 350
SCALARS id int 1
LOOKUP_TABLE default
0
1
2
3
4
5
6
7
8
9
10
11
12
13
14
15
16
17
18
19
20
21
22
23
24
25
26
27
28
29
30
31
32
33
34
35
36
37
38
39
40
41
42
43
44
45
46
47
48
49
50
51
52
53
54
55
56
57
58
59
60
61
62
63
64
65
66
67
68
69
70
71
72
73
74
75
76
77
78
79
80
81
82
83
84
85
86
87
88
89
90
91
92
93
94
95
96
97
98
99
100
101
102
103
104
105
106
107
108
109
110
111
112
113
114
115
116
117
118
119
120
121
122
123
124
125
126
127
128
129
130
131
132
133
134
135
136
137
138
139
140
141
142
143
144
145
146
147
148
149
150
151
152
153
154
155
156
157
158
159
160
161
162
163
164
165
166
167
168
169
170
171
172
173
174
175
176
177
178
179
180
181
182
183
184
185
186
187
188
189
190
191
192
193
194
195
196
197
198
199
200
201
202
203
204
205
206
207
208
209
210
211
212
213
214
215
216
217
218
219
220
221
222
223
224
225
226
227
228
229
230
231
232
233
234
235
236
237
238
239
240
241
242
243
244
245
246
247
248
249
250
251
252
253
254
255
256
257
258
259
260
261
262
263
264
265
266
267
268
269
270
271
272
273
274
275
276
277
278
279
280
281
282
283
284
285
286
287
288
289
290
291
292
293
294
295
296
297
298
299
300
301
302
303
304
305
306
307
308
309
310
311
312
313
314
315
316
317
318
319
320
321
322
323
324
325
326
327
328
329
330
331
332
333
334
335
336
337
338
339
340
341
342
343
344
345
346
347
348
349
SCALARS type int 1
LOOKUP_TABLE default
0
0
0
0
0
0
0
0
0
0
0
0
0
0
0
0
0
0
0
0
0
0
0
0
0
0
0
0
0
0
0
0
0
0
0
0
0
0
0
0
0
0
0
0
0
0
0
0
0
0
0
0
0
0
0
0
0
0
0
0
0
0
0
0
0
0
0
0
0
0
0
0
0
0
0
0
0
0
0
0
0
0
0
0
0
0
0
0
0
0
0
0
0
0
0
0
0
0
0
0
0
0
0
0
0
0
0
0
0
0
0
0
0
0
0
0
0
0
0
0
0
0
0
0
0
0
0
0
0
0
0
0
0
0
0
0
0
0
0
0
0
0
0
0
0
0
0
0
0
0
0
0
0
0
0
0
0
0
0
0
0
0
0
0
0
0
0
0
0
0
0
0
0
0
0
0
0
0
0
0
0
0
0
0
0
0
0
0
0
0
0
0
0
0
0
0
0
0
0
0
0
0
0
0
0
0
0
0
0
0
0
0
0
0
0
0
0
0
0
0
0
0
0
0
0
0
0
0
0
0
0
0
0
0
0
0
0
0
0
0
0
0
0
0
0
0
0
0
0
0
0
0
0
0
0
0
0
0
0
0
0
0
0
0
0
0
0
0
0
0
0
0
0
0
0
0
0
0
0
0
0
0
0
0
0
0
0
0
0
0
0
0
0
0
0
0
0
0
0
0
0
0
0
0
0
0
0
0
0
0
0
0
0
0
0
0
0
0
0
0
0
0
0
0
0
0
0
0
0
0
0
0
0
0
0
0
0
0
0
0
0
0
0
0
0
0
0
0
0
0
SCALARS damp_viscous double 1
LOOKUP_TABLE default
0
0
0
0
0
0
0
0
0
0
0
0
0
0
0
0
0
0
0
0
0
0
0
0
0
0
0
0
0
0
0
0
0
0
0
0
0
0
0
0
0
0
0
0
0
0
0
0
0
0
0
0
0
0
0
0
0
0
0
0
0
0
0
0
0
0
0
0
0
0
0
0
0
0
0
0
0
0
0
0
0
0
0
0
0
0
0
0
0
0
0
0
0
0
0
0
0
0
0
0
0
0
0
0
0
0
0
0
0
0
0
0
0
0
0
0
0
0
0
0
0
0
0
0
0
0
0
0
0
0
0
0
0
0
0
0
0
0
0
0
0
0
0
0
0
0
0
0
0
0
0
0
0
0
0
0
0
0
0
0
0
0
0
0
0
0
0
0
0
0
0
0
0
0
0
0
0
0
0
0
0
0
0
0
0
0
0
0
0
0
0
0
0
0
0
0
0
0
0
0
0
0
0
0
0
0
0
0
0
0
0
0
0
0
0
0
0
0
0
0
0
0
0
0
0
0
0
0
0
0
0
0
0
0
0
0
0
0
0
0
0
0
0
0
0
0
0
0
0
0
0
0
0
0
0
0
0
0
0
0
0
0
0
0
0
0
0
0
0
0
0
0
0
0
0
0
0
0
0
0
0
0
0
0
0
0
0
0
0
0
0
0
0
0
0
0
0
0
0
0
0
0
0
0
0
0
0
0
0
0
0
0
0
0
0
0
0
0
0
0
0
0
0
0
0
0
0
0
0
0
0
0
0
0
0
0
0
0
0
0
0
0
0
0
0
0
0
0
0
0
SCALARS damp_numerical double 1
LOOKUP_TABLE default
0.5
0.5
0.5
0.5
0.5
0.5
0.5
0.5
0.5
0.5
0.5
0.5
0.5
0.5
0.5
0.5
0.5
0.5
0.5
0.5
0.5
0.5
0.5
0.5
0.5
0.5
0.5
0.5
0.5
0.5
0.5
0.5
0.5
0.5
0.5
0.5
0.5
0.5
0.5
0.5
0.5
0.5
0.5
0.5
0.5
0.5
0.5
0.5
0.5
0.5
0.5
0.5
0.5
0.5
0.5
0.5
0.5
0.5
0.5
0.5
0.5
0.5
0.5
0.5
0.5
0.5
0.5
0.5
0.5
0.5
0.5
0.5
0.5
0.5
0.5
0.5
0.5
0.5
0.5
0.5
0.5
0.5
0.5
0.5
0.5
0.5
0.5
0.5
0.5
0.5
0.5
0.5
0.5
0.5
0.5
0.5
0.5
0.5
0.5
0.5
0.5
0.5
0.5
0.5
0.5
0.5
0.5
0.5
0.5
0.5
0.5
0.5
0.5
0.5
0.5
0.5
0.5
0.5
0.5
0.5
0.5
0.5
0.5
0.5
0.5
0.5
0.5
0.5
0.5
0.5
0.5
0.5
0.5
0.5
0.5
0.5
0.5
0.5
0.5
0.5
0.5
0.5
0.5
0.5
0.5
0.5
0.5
0.5
0.5
0.5
0.5
0.5
0.5
0.5
0.5
0.5
0.5
0.5
0.5
0.5
0.5
0.5
0.5
0.5
0.5
0.5
0.5
0.5
0.5
0.5
0.5
0.5
0.5
0.5
0.5
0.5
0.5
0.5
0.5
0.5
0.5
0.5
0.5
0.5
0.5
0.5
0.5
0.5
0.5
0.5
0.5
0.5
0.5
0.5
0.5
0.5
0.5
0.5
0.5
0.5
0.5
0.5
0.5
0.5
0.5
0.5
0.5
0.5
0.5
0.5
0.5
0.5
0.5
0.5
0.5
0.5
0.5
0.5
0.5
0.5
0.5
0.5
0.5
0.5
0.5
0.5
0.5
0.5
0.5
0.5
0.5
0.5
0.5
0.5
0.5
0.5
0.5
0.5
0.5
0.5
0.5
0.5
0.5
0.5
0.5
0.5
0.5
0.5
0.5
0.5
0.5
0.5
0.5
0.5
0.5
0.5
0.5
0.5
0.5
0.5
0.5
0.5
0.5
0.5
0.5
0.5
0.5
0.5
0.5
0.5
0.5
0.5
0.5
0.5
0.5
0.5
0.5
0.5
0.5
0.5
0.5
0.5
0.5
0.5
0.5
0.5
0.5
0.5
0.5
0.5
0.5
0.5
0.5
0.5
0.5
0.5
0.5
0.5
0.5
0.5
0.5
0.5
0.5
0.5
0.5
0.5
0.5
0.5
0.5
0.5
0.5
0.5
0.5
0.5
0.5
0.5
0.5
0.5
0.5
0.5
0.5
0.5
0.5
0.5
0.5
0.5
0.5
0.5
0.5
0.5
0.5
0.5
0.5
0.5
0.5
0.5
0.5
0.5
0.5
0.5
0.5
0.5
0.5
0.5
0.5
0.5
0.5
0.5
0.5
0.5
SCALARS quat double 4
LOOKUP_TABLE default
0.97815 0.0838932 -0.0511191 0.183226 
0.595793 0.174122 0.775384 0.116151 
0.997442 0.0545989 -0.0404813 -0.022119 
-0.405272 -0.343131 -0.7176 -0.450628 
0.225191 0.653405 -0.107731 0.714664 
0.811066 -0.257983 -0.188878 0.489839 
0.507101 -0.0133356 0.52352 0.684542 
0.940109 0.0759561 0.29387 0.15513 
-0.0978777 0.582406 0.806836 -0.0154496 
0.295277 0.0803383 0.0304995 0.951539 
0.926063 -0.00707896 -0.00221404 0.377296 
0.838936 -0.45806 -0.268016 0.120558 
0.00367532 0.411063 0.286515 0.865403 
0.60304 0.732991 0.291318 -0.11917 
0.447004 0.77404 -0.293183 0.339252 
0.996936 0.0700356 -0.0203259 -0.0282991 
0.635966 0.0533008 0.0149193 0.769729 
0.974752 0.0795369 -0.00231569 0.208631 
0.967427 0.114899 -0.0873571 0.207972 
-0.84243 0.313326 0.437336 -0.0295867 
0.964482 -0.00945079 0.262871 -0.0241474 
-0.201903 0.575477 -0.495098 0.618821 
0.814861 -0.239203 -0.500966 -0.166782 
0.582433 0.736093 -0.321605 -0.124536 
0.983895 0.105247 -0.0988661 0.105351 
0.983952 0.106442 0.0311782 0.139775 
-0.539256 0.140237 0.818023 -0.142742 
0.999706 0.00686416 0.0226057 0.0055429 
0.584426 -0.316342 -0.605871 0.437372 
0.278159 0.368858 0.616136 0.637925 
0.802088 0.27813 0.427799 0.310301 
0.703314 -0.0872247 0.63882 0.299418 
0.628387 0.639991 0.336582 0.286799 
0.314916 0.133676 0.0543959 0.938083 
0.405887 0.766546 0.276041 -0.414082 
0.540261 0.00682196 0.0319714 0.840862 
0.306586 0.365861 0.487629 0.731005 
0.189731 0.506031 0.813116 -0.216281 
0.757717 -0.594 -0.270219 -0.00335264 
0.483468 0.721075 -0.0242855 -0.495702 
0.975514 0.100327 -0.127563 0.14844 
0.737223 0.187474 -0.0783672 0.644371 
0.981696 -0.0178133 0.0514305 0.182511 
0.0156156 0.816353 0.557229 -0.15106 
0.694034 -0.340779 -0.618522 -0.140064 
0.773284 0.44084 -0.416371 0.185277 
0.467368 -0.470121 0.413628 -0.624071 
-0.882534 0.423725 -0.166872 0.117236 
0.447835 0.736189 -0.382708 0.333171 
-0.823787 0.524428 0.140035 -0.163524 
0.956795 0.13076 -0.2597 0.000434926 
-0.130144 0.16749 0.976837 0.0282817 
0.997442 -0.0397183 0.0423076 -0.041736 
-0.00284668 -0.182861 -0.318935 -0.929965 
-0.519004 0.60806 0.322777 -0.506669 
-0.550303 0.372251 0.529738 -0.527231 
-0.147747 0.0837566 0.620804 -0.765348 
0.790322 -0.516193 -0.231407 -0.235344 
-0.264519 0.0758542 0.550105 -0.788455 
0.215489 -0.949625 -0.225657 -0.0292515 
-0.168889 0.54407 0.594273 -0.567718 
0.0281321 -0.901073 -0.169607 0.398132 
-0.439334 0.475288 -0.103781 0.755193 
-0.202589 0.212622 0.92435 0.243569 
-0.10282 0.162506 0.964632 -0.180292 
0.90289 0.242073 -0.355232 -0.0010624 
0.209041 -0.811248 -0.138708 0.528147 
0.968658 -0.124507 -0.0069331 0.21483 
0.888668 -0.0463884 0.428244 -0.157237 
-0.94811 -0.274551 -0.160118 0.00846391 
0.510161 -0.47834 -0.706297 0.109869 
-0.643193 -0.747704 -0.0681756 0.15031 
0.362769 0.304531 -0.410801 -0.779039 
-0.577653 0.75903 -0.29317 -0.0651295 
0.951721 -0.252176 0.01262 -0.17457 
0.920783 0.255238 -0.279611 -0.0939703 
0.87573 0.111698 0.45743 0.106666 
0.995194 -0.0305681 -0.0924621 0.010268 
0.167978 -0.112675 -0.424466 -0.882562 
-0.271118 -0.0241089 -0.467722 -0.840922 
0.802916 0.421312 -0.214041 -0.36333 
0.702301 -0.224357 -0.175084 0.65252 
0.0717745 -0.859435 -0.505854 -0.0182111 
-0.067587 0.811747 -0.193932 0.546707 
0.870243 0.387315 0.0906503 0.290598 
0.920324 -0.185907 -0.0523779 0.340145 
-0.29418 -0.25058 -0.917563 -0.0935237 
-0.258929 -0.298149 -0.914214 -0.0909715 
0.649702 0.708786 0.0286554 -0.273292 
-0.440309 0.0592281 -0.47774 0.757882 
0.957001 -0.0774457 0.216051 -0.177407 
-0.532192 0.833018 -0.151149 -0.00260608 
0.950367 0.00396552 -0.139878 0.277887 
0.879411 -0.276526 0.381837 0.0661097 
0.801779 -0.0663862 0.44236 -0.396309 
0.575014 -0.635481 -0.130806 -0.49841 
0.54962 -0.46259 0.344988 0.604079 
0.431812 0.060896 -0.667899 0.60311 
-0.62047 0.592281 -0.0559387 -0.510971 
0.993948 0.0177162 -0.065166 -0.0866447 
0.912932 0.194313 0.0442636 -0.356143 
-0.603359 0.322319 -0.62579 0.374774 
0.467882 0.399774 -0.786802 -0.0470097 
-0.0924638 -0.954477 -0.0974304 -0.266329 
-0.367151 -0.65777 -0.343885 -0.560608 
0.930189 -0.187549 0.188308 0.253207 
-0.617149 0.671282 0.394962 -0.111858 
-0.441035 -0.519397 -0.728128 -0.0744661 
0.562669 0.795256 0.0799168 -0.211151 
-0.122028 0.267123 -0.935606 0.195946 
0.550449 -0.614349 -0.312598 0.471025 
-0.806051 -0.126618 -0.566448 -0.115699 
0.0559356 -0.125518 0.341636 -0.929732 
0.964144 -0.0427637 0.256099 -0.0548783 
0.0574942 0.49617 -0.112091 0.859037 
0.99456 -0.0158659 -0.0408454 0.0945018 
0.638207 -0.518084 0.494703 0.282045 
0.750437 0.0668207 -0.249309 0.608461 
0.898042 0.0946865 0.0671146 0.424323 
0.365321 0.271246 -0.754425 0.473084 
0.255721 0.42652 0.158976 -0.852886 
-0.101722 -0.262843 -0.631152 0.722643 
-0.257921 -0.294375 -0.630451 -0.670337 
-0.936042 -0.270618 -0.143897 0.172874 
0.879793 -0.425241 0.107089 0.183483 
0.651582 0.346876 -0.666198 -0.106292 
-0.286944 0.0822761 0.875469 0.380062 
0.619761 0.37524 -0.53393 -0.435902 
-0.00902447 -0.324637 0.893211 0.310971 
-0.0398438 -0.294161 0.650444 0.699146 
-0.235379 0.393406 0.884852 -0.0828537 
-0.745428 -0.41149 0.497863 0.164761 
0.716398 0.0814665 0.367417 0.587488 
0.486367 0.873298 -0.0237188 0.0153467 
-0.220527 -0.809846 0.54046 -0.0584844 
0.498486 -0.455516 -0.00428288 0.737562 
0.772062 0.0598063 0.54015 0.329518 
0.235764 0.768852 0.516439 0.294231 
0.126122 0.86681 0.255644 -0.40912 
-0.0585739 0.88529 -0.411158 0.209236 
0.475093 0.355806 -0.797366 0.109071 
0.681194 -0.262646 -0.127676 0.671335 
0.70335 0.42136 0.212425 0.53163 
0.97555 -0.174643 -0.115702 0.0664485 
-0.0120308 -0.422845 -0.821626 -0.382083 
0.42445 -0.871739 0.232135 -0.0776343 
0.811063 -0.16663 0.550477 0.106709 
0.196941 -0.971832 0.122854 -0.0407892 
-0.161722 -0.613968 -0.119625 -0.763269 
-0.2562 0.966456 0.0178965 0.00207643 
0.0832123 -0.215306 0.928182 -0.291884 
-0.467119 0.21301 0.846061 -0.143553 
0.805871 -0.190918 0.31044 -0.466637 
-0.95276 0.0408601 0.0803227 -0.290048 
-0.528745 -0.202827 -0.504267 0.651924 
0.473855 -0.0319586 -0.728872 0.493138 
0.828017 -0.132881 -0.477612 0.26195 
-0.103685 -0.899436 -0.0698201 0.418794 
0.929548 0.124669 -0.00647799 0.346924 
-0.322109 0.215375 -0.806326 0.446875 
-0.46784 0.808956 0.341345 0.100991 
0.725495 -0.550925 -0.408227 0.0590679 
-0.460448 -0.498724 -0.536327 -0.501613 
0.888887 -0.0361949 -0.424436 -0.168592 
-0.331519 -0.511721 0.792497 0.0136133 
0.724284 0.301693 -0.61958 0.0226808 
0.651567 -0.0101096 -0.0598669 0.756158 
0.634947 0.758898 0.144137 -0.0118585 
-0.245533 0.948086 0.169102 0.110681 
-0.403017 0.0795652 0.179338 -0.893915 
-0.337089 -0.804488 -0.0927959 0.480166 
0.134576 0.71961 0.489277 0.473981 
0.681855 -0.211029 0.528203 -0.459937 
0.134728 -0.889372 0.208097 0.384138 
0.846066 -0.355606 -0.387429 -0.0872623 
0.709544 -0.509774 0.356623 -0.330905 
-0.65242 0.741726 -0.12324 -0.0948852 
0.988421 0.0915009 0.112154 -0.0455255 
-0.980412 -0.165815 0.0278124 -0.102587 
-0.103273 0.179837 -0.770278 -0.603046 
0.840699 -0.333819 -0.0960758 0.415403 
0.692293 -0.388852 0.485483 -0.365828 
-0.714681 0.672583 -0.0668251 -0.179991 
-0.614657 0.643677 0.153949 0.429158 
-0.16271 0.816605 0.550967 -0.0558352 
0.811538 0.340986 0.440605 0.176074 
0.390375 -0.465511 0.437886 -0.662694 
0.379971 0.355176 0.535293 0.665533 
0.957649 -0.0601649 -0.24811 0.133155 
0.271244 0.85937 -0.20496 0.381971 
0.921217 -0.267798 0.171553 -0.224082 
0.459788 0.641005 -0.0808815 0.609234 
0.613235 0.138594 0.363218 -0.68761 
0.937459 -0.316529 -0.1133 -0.0902435 
0.506774 -0.00122651 -0.673923 0.537592 
-0.917317 0.339339 -0.198152 0.0641352 
-0.271776 0.41217 -0.608413 0.621359 
0.0130001 0.920029 0.325221 -0.218194 
-0.960466 0.0766078 -0.118021 0.240224 
-0.0508974 0.882184 0.461044 -0.081238 
0.681799 -0.532106 0.33349 -0.37523 
-0.0760623 0.782216 0.232874 0.572819 
-0.0129926 -0.524633 0.834804 -0.166414 
0.756433 -0.179455 0.622957 -0.0867699 
0.700497 -0.365397 -0.288947 0.540645 
-0.0692369 0.274167 0.884035 0.372184 
-0.25867 0.402804 0.309277 0.821697 
-0.335309 0.0420145 -0.90912 -0.243523 
0.415456 0.795358 0.187839 0.399397 
0.122515 -0.316809 -0.70622 0.621189 
0.952107 -0.197231 -0.191828 0.133393 
0.753649 -0.585942 -0.188359 0.230663 
-0.326566 0.66942 0.352768 0.566379 
-0.526143 0.602573 0.46672 0.377163 
0.531009 0.771295 0.0650219 0.344828 
0.520894 -0.0977263 0.847874 0.0151401 
0.414393 0.732043 -0.108764 0.529681 
0.572659 -0.177831 -0.291055 -0.745469 
0.708409 -0.610637 -0.343108 -0.0869244 
0.803336 0.351957 -0.352212 -0.326687 
0.802637 -0.563381 -0.146148 -0.130449 
0.629338 -0.272121 0.715504 -0.133934 
0.859453 0.0683223 0.222515 0.455148 
0.240277 -0.885483 0.346633 -0.195019 
0.991043 0.106155 0.075905 -0.0283471 
0.863828 -0.0987273 0.0486781 -0.491615 
-0.483251 -0.296847 -0.0842624 -0.819299 
-0.215475 0.102312 -0.483356 0.8423 
0.221524 0.323117 -0.893757 0.218452 
0.130138 0.374826 0.788591 0.46978 
0.89351 -0.301051 0.00953069 0.333043 
0.623749 -0.255447 0.718162 -0.172996 
0.792888 -0.565238 -0.112471 -0.197952 
0.424593 0.789146 -0.161691 0.413311 
0.143047 0.759939 0.555979 -0.304824 
0.783422 0.311712 0.503076 0.189737 
0.057106 -0.670308 0.619441 -0.404623 
-0.460272 0.305642 -0.117793 0.825141 
0.749508 -0.445641 0.0922692 0.480757 
0.768871 -0.368992 -0.509926 0.112505 
0.756184 0.43052 0.445765 0.210076 
-0.264776 0.829419 -0.288153 0.398653 
0.640961 -0.351775 -0.400124 -0.552562 
0.173946 0.875628 0.371262 -0.255309 
0.874109 0.115639 0.183363 0.434671 
0.81572 0.546758 -0.10815 0.15479 
-0.0763594 -0.51306 0.642303 -0.564257 
0.821179 -0.160961 0.5256 -0.153304 
0.469785 0.849035 0.0636855 0.233207 
0.576365 0.721475 0.381115 0.0450354 
-0.010261 0.463431 -0.882668 0.0776161 
-0.363354 0.36362 0.712318 0.477867 
-0.155312 -0.860766 0.478888 -0.0750082 
-0.135034 0.360072 -0.89068 0.242492 
0.18379 -0.481291 -0.85263 0.0871931 
0.819298 0.0145514 0.517716 0.245986 
-0.691507 0.372694 0.520326 -0.33493 
0.984868 -0.114333 0.130202 -0.00332332 
0.661111 0.554882 0.491947 -0.11413 
-0.0200758 0.33228 0.235592 0.913062 
0.899394 0.292902 0.180975 0.269347 
0.482481 -0.234662 0.647768 0.540872 
0.738785 -0.0692375 -0.580329 0.33559 
-0.0462627 0.873994 0.343325 0.340768 
0.558466 0.763993 0.254513 0.199134 
-0.0160598 -0.551637 0.14236 -0.821689 
-0.583623 -0.203428 -0.184529 -0.764166 
0.902744 -0.299341 -0.186529 0.246281 
0.878268 0.402458 0.202459 0.160259 
0.36219 -0.606611 0.703514 0.0768699 
0.925993 -0.372305 0.0612707 0.0130861 
0.45632 -0.102494 0.823378 0.321427 
0.816983 0.1229 0.0640167 0.559764 
0.190793 -0.499044 0.750569 0.388844 
0.999247 -0.0322997 0.00996496 0.0190525 
0.804605 0.297926 -0.473696 0.198654 
0.277466 -0.642096 0.635545 -0.326813 
-0.797847 0.21963 0.549939 0.113003 
0.036896 -0.60864 -0.671654 0.420806 
0.835929 0.156222 -0.525557 -0.024634 
0.55623 -0.142546 0.59537 -0.561982 
-0.401865 0.415208 0.678326 0.453852 
-0.674321 0.720926 -0.077861 0.139624 
-0.280333 0.00226017 0.533208 0.798184 
-0.120909 0.429121 0.0908305 0.890497 
0.831176 0.318484 0.290509 0.351167 
-0.275994 -0.900964 0.101689 0.318984 
0.182566 0.232174 0.538726 -0.789011 
-0.0819804 0.845885 0.481795 0.213614 
0.866658 0.207836 -0.0459515 0.451216 
0.737084 -0.622136 -0.18687 0.18637 
-0.0357704 -0.336478 -0.940797 0.0201082 
0.644002 -0.530962 -0.106491 0.540371 
0.699891 0.321832 0.352169 0.531558 
-0.123126 0.271902 0.953516 0.0414216 
0.93732 0.342331 -0.0648215 -0.00626064 
0.320511 0.415657 0.407495 0.747295 
0.629538 0.157118 -0.274853 0.709543 
0.793023 -0.554982 0.239964 -0.0743428 
0.389876 0.886026 0.250354 0.0166483 
-0.187912 0.837331 0.202765 -0.471648 
0.449344 -0.460591 -0.687383 -0.336823 
0.789775 0.0488544 -0.22454 0.568726 
-0.375219 -0.308578 0.73961 -0.465797 
-0.0874081 -0.951785 -0.193606 -0.221316 
0.941434 -0.0885328 -0.284534 0.157813 
-0.0649663 0.981651 -0.177974 0.0215993 
-0.177654 -0.0961422 0.774437 -0.599536 
0.130082 0.233012 -0.434622 0.860167 
0.138847 0.392335 0.0517525 0.907809 
0.857684 0.101105 0.245497 0.440327 
-0.713158 0.535036 0.295852 0.342947 
0.624976 -0.0143297 0.507441 -0.593046 
0.919772 0.348365 0.144575 0.108437 
0.757006 0.407311 -0.146153 0.489571 
0.704361 -0.336293 -0.46301 -0.420006 
0.379398 0.476057 -0.394645 -0.688246 
0.817767 0.363931 0.0286023 -0.444964 
-0.816731 -0.506575 -0.26809 -0.0667794 
-0.720081 0.125237 -0.667803 0.140847 
0.999851 0.0170919 0.00236467 -0.000541565 
0.0947026 -0.166576 0.478384 0.85699 
0.537392 -0.612286 0.516012 0.264664 
-0.916727 -0.233633 -0.282638 -0.158563 
0.880043 -0.271209 0.305838 -0.24173 
0.804905 -0.520266 0.034696 0.283281 
-0.420396 0.232686 -0.8621 -0.160958 
-0.162048 0.933797 0.276008 -0.159949 
0.700898 0.364539 -0.139828 0.59691 
0.536559 0.155041 0.806331 0.194674 
-0.0112742 0.628786 0.708589 -0.320004 
0.410568 -0.17661 0.367401 0.815635 
0.0987564 -0.332967 0.920633 -0.178367 
-0.589338 0.389666 -0.378969 -0.597681 
-0.0890696 0.711866 0.426124 0.551119 
0.890844 0.195885 0.326856 0.247367 