# vtk DataFile Version 2.0
Generated by NetDEM
ASCII 
DATASET POLYDATA
POINTS 500 double
-0.41899 -0.408352 -0.464074 
-0.449688 -0.194096 -0.450013 
-0.40707 -0.0107846 -0.461789 
-0.450014 0.109823 -0.450017 
-0.438238 0.349461 -0.45005 
-0.271003 -0.429786 -0.459142 
-0.304568 -0.220434 -0.450052 
-0.191235 -0.0110745 -0.450069 
-0.172663 0.173132 -0.463909 
-0.254708 0.366674 -0.463535 
-0.0557092 -0.396683 -0.461053 
-0.147015 -0.134389 -0.450015 
-0.0553585 -0.0926847 -0.45002 
0.0382516 0.180197 -0.452834 
-0.029731 0.318545 -0.442614 
0.19325 -0.401543 -0.462897 
0.169621 -0.210034 -0.46327 
0.172633 -0.00501821 -0.462784 
0.161331 0.20743 -0.465071 
0.298038 0.402985 -0.418655 
0.449991 -0.409924 -0.450042 
0.433065 -0.299546 -0.450015 
0.338677 -0.0120748 -0.450012 
0.377227 0.0888585 -0.450013 
0.372111 0.439615 -0.465045 
-0.430952 -0.411111 -0.393968 
-0.45 -0.271177 -0.386311 
-0.408168 -0.0175003 -0.387625 
-0.445582 0.176097 -0.375108 
-0.449902 0.448828 -0.45003 
-0.336616 -0.406847 -0.407551 
-0.240782 -0.149981 -0.418974 
-0.156692 -0.100507 -0.211477 
-0.304583 0.164535 -0.465035 
-0.150199 0.404607 -0.45138 
-0.0877624 -0.390845 -0.396481 
0.310545 -0.246004 -0.132996 
-0.0417744 -0.016347 -0.30913 
0.0286861 0.259672 -0.450594 
0.122192 0.302034 -0.430383 
0.202451 -0.414132 -0.390714 
0.166855 -0.206151 -0.390215 
0.175323 0.0164617 -0.386054 
0.19724 0.113016 -0.455702 
0.28552 0.369096 -0.325435 
0.38225 -0.450014 -0.388394 
0.435408 -0.355713 -0.367325 
0.275729 -0.211882 -0.450008 
0.450014 0.141216 -0.405752 
0.425378 0.340994 -0.456335 
-0.435797 -0.441017 -0.326005 
-0.320693 -0.209412 -0.352013 
-0.312309 -0.0190773 -0.369402 
-0.289272 0.270605 -0.450012 
-0.450037 0.275632 -0.3837 
-0.180616 -0.373194 -0.451978 
0.183105 -0.336952 -0.300523 
-0.23878 -0.0557756 -0.175968 
-0.174718 0.0777703 -0.450508 
-0.350113 0.330881 -0.337015 
0.0442334 -0.439692 -0.449684 
0.206647 -0.284696 -0.157561 
0.205387 0.0623092 -0.207068 
-0.0399585 0.221664 -0.393026 
0.256378 0.331651 -0.463474 
0.196786 -0.434923 -0.319529 
0.0519851 -0.0965828 -0.450587 
0.161342 0.0612067 -0.331793 
0.271824 0.0650559 -0.442571 
0.112961 0.138488 -0.397503 
0.298516 -0.447148 -0.450007 
0.377615 -0.216267 -0.450048 
0.379216 -0.109814 -0.450049 
0.449989 0.232474 -0.364902 
0.437586 0.256542 -0.459886 
-0.433678 -0.452862 -0.243613 
-0.176369 -0.163072 -0.343633 
-0.238512 -0.00410895 -0.35308 
-0.269501 0.0894798 -0.404786 
-0.354479 0.14305 -0.348813 
-0.161108 -0.448765 -0.394638 
-0.126358 -0.0569351 -0.389391 
-0.239406 0.0481237 -0.225016 
-0.0548982 0.128224 -0.444747 
-0.355262 0.380719 -0.407519 
0.0917542 -0.451348 -0.355381 
0.449195 -0.333572 -0.0792781 
-0.187976 -0.23968 -0.45001 
0.0173145 0.0472026 -0.450234 
0.0672908 0.398255 -0.410265 
0.260826 -0.445989 -0.244545 
0.154957 -0.318462 -0.400469 
0.121266 0.0680068 -0.270251 
0.264668 0.17492 -0.443827 
0.143878 0.45001 -0.450017 
0.346216 -0.309897 -0.361818 
0.449987 -0.106064 -0.379541 
0.387482 0.16047 -0.330116 
0.330999 0.308798 -0.412246 
0.436627 0.371978 -0.377337 
-0.387091 -0.439536 -0.169759 
-0.367781 -0.360603 -0.119842 
-0.294661 -0.039958 -0.275484 
-0.366742 0.068014 -0.413724 
-0.447319 0.426806 -0.352591 
-0.268726 -0.43903 -0.363203 
-0.063219 -0.159213 -0.375746 
-0.249274 0.0400393 -0.125845 
-0.00327009 -0.0239814 -0.396919 
-0.423353 0.242613 -0.463991 
0.0827673 -0.342583 -0.440741 
0.355192 -0.21222 -0.0496139 
0.0359719 -0.119314 -0.351321 
0.0280661 0.0423058 -0.355062 
-0.0029911 0.436496 -0.464279 
0.302461 -0.385412 -0.21697 
0.259665 -0.31556 -0.423767 
0.0389086 0.0688895 -0.260618 
0.246657 0.241106 -0.380726 
0.348692 0.44999 -0.271157 
0.326285 -0.404936 -0.318846 
0.450026 -0.209537 -0.381461 
0.45 -0.0306575 -0.450007 
0.339953 0.209628 -0.403072 
0.398012 0.453002 -0.373906 
-0.462117 -0.452466 -0.126338 
-0.320461 -0.139288 -0.280763 
-0.451397 -0.0305505 -0.320537 
-0.252799 0.190158 -0.394107 
-0.305483 0.449202 -0.359879 
-0.164125 -0.374457 -0.338745 
-0.0849323 -0.222677 -0.450007 
-0.1944 -0.161832 -0.142067 
-0.134486 0.1482 -0.397154 
-0.228422 0.333065 -0.394149 
-0.0920309 -0.310624 -0.451292 
0.287652 -0.319231 -0.0688642 
0.449913 0.0525872 -0.16056 
0.0449974 0.120691 -0.330829 
-0.115026 0.313011 -0.406354 
0.162118 -0.433082 -0.234625 
0.239079 -0.140347 -0.393449 
0.110229 -0.0229065 -0.220804 
0.196114 0.306898 -0.339233 
0.201268 0.38532 -0.396387 
0.449993 -0.440001 -0.315514 
0.334829 -0.173161 -0.370611 
0.250388 -0.0607771 -0.450026 
0.44869 0.0509369 -0.362637 
0.440839 0.408114 -0.299796 
-0.438685 -0.45771 -0.0112109 
-0.228358 -0.171402 -0.258625 
-0.423473 -0.112698 -0.406112 
-0.20696 0.271609 -0.332825 
-0.336499 0.239612 -0.367502 
-0.139946 -0.290168 -0.369827 
0.129822 -0.450007 -0.092746 
-0.306178 0.364043 -0.181138 
-0.105785 0.275169 -0.326507 
-0.223908 0.455488 -0.438011 
-0.00137239 -0.339654 -0.359983 
0.117419 -0.24017 -0.150214 
-0.177345 -0.069847 -0.304377 
0.0184286 0.200548 -0.301699 
0.0102458 0.294366 -0.348934 
0.0755785 -0.41186 -0.273679 
0.135715 -0.096885 -0.3987 
0.257227 -0.117645 -0.265106 
0.23203 0.184333 -0.325197 
0.13947 0.448871 -0.350114 
0.387354 -0.228488 -0.305918 
0.344128 -0.0671267 -0.366711 
0.321188 0.0576661 -0.371915 
0.40212 0.30254 -0.310777 
0.446633 0.377662 -0.213163 
-0.328874 -0.448503 -0.0813585 
-0.448647 -0.0992012 -0.26444 
-0.357659 0.0109678 -0.242543 
-0.449999 0.0686792 -0.35506 
-0.41804 0.261357 -0.290074 
-0.267308 -0.309234 -0.446444 
-0.179902 -0.276207 -0.242917 
-0.143148 0.400494 -0.0759499 
-0.125861 0.189238 -0.333901 
-0.139772 0.441982 -0.350534 
0.00572168 -0.435122 -0.355819 
0.0156858 -0.0963577 -0.256137 
0.0157107 -0.224529 -0.450007 
-0.0267541 0.27047 -0.247027 
-0.00588292 0.410956 -0.369683 
0.0743248 -0.426368 -0.172069 
0.0981097 -0.0405863 -0.33092 
0.287455 -0.160529 -0.187466 
0.203349 0.136811 -0.26847 
0.249037 0.450007 -0.279389 
0.450006 -0.309513 -0.279861 
0.449948 -0.149388 -0.289429 
0.364961 0.0397213 -0.283842 
0.317673 0.249002 -0.30952 
0.382258 0.427034 -0.195109 
-0.245085 -0.443356 -0.153808 
-0.442913 0.230244 -0.198378 
-0.292949 0.19023 -0.183681 
-0.189498 0.0760661 -0.34235 
-0.374855 0.450007 -0.287731 
-0.226473 -0.349221 -0.242094 
-0.0437433 -0.261336 -0.307227 
0.0156061 -0.243154 -0.228835 
-0.157892 0.116179 -0.253747 
-0.167343 0.350827 -0.327833 
-0.0440085 -0.385985 -0.290865 
-0.185756 -0.0950496 0.190195 
-0.0276975 0.205124 -0.166177 
-0.0558792 0.116932 -0.31209 
0.103769 0.358765 -0.329324 
0.264363 -0.434542 -0.134607 
0.219084 -0.196546 -0.310809 
0.293451 -0.106539 -0.120801 
0.15113 0.227358 -0.288861 
0.202625 0.353122 -0.253485 
0.409768 -0.391393 -0.237961 
0.446283 -0.2259 -0.225166 
0.4351 -0.0340694 -0.31178 
0.303682 0.118344 -0.291525 
0.406864 0.404147 -0.122206 
-0.253409 -0.332634 -0.150473 
-0.41667 -0.334906 -0.316791 
-0.430243 0.331781 -0.133869 
-0.341701 0.323678 -0.060484 
-0.44891 0.426226 -0.00701734 
-0.141489 -0.41716 -0.251824 
-0.052522 0.136466 -0.0630742 
-0.259757 -0.176469 -0.0224131 
-0.183211 0.175942 -0.183253 
-0.158687 0.338285 -0.219581 
-0.0620003 -0.384727 -0.204619 
-0.137972 -0.141391 -0.01319 
-0.111792 -0.0246882 -0.164198 
-0.0041731 0.110245 -0.194638 
0.0252858 0.446739 -0.27725 
0.298356 -0.328309 -0.170762 
0.247026 -0.294922 -0.341759 
0.350438 -0.0519832 -0.0694027 
0.15472 0.272652 -0.217965 
0.208055 0.405567 -0.133948 
0.358472 -0.450002 -0.170339 
0.449985 -0.199542 -0.0787833 
0.336131 0.130094 -0.00175258 
0.449996 0.15277 -0.173834 
0.425712 0.387927 -0.0415094 
-0.297909 -0.320309 -0.347271 
-0.118079 -0.203715 -0.273294 
-0.325414 -0.0194975 -0.14417 
-0.219827 0.20486 -0.25949 
-0.4228 0.444551 -0.200187 
-0.248766 -0.429531 -0.269353 
0.0982278 -0.283555 -0.305926 
-0.308794 0.256879 -0.127216 
-0.247742 0.301889 -0.206205 
-0.150253 0.442469 -0.240196 
0.0159567 -0.380906 -0.160887 
0.450002 -0.389914 0.00331798 
0.076526 0.436982 -0.186716 
-0.0743514 0.406747 -0.321172 
-0.0382538 0.447878 -0.216779 
0.354491 -0.395766 -0.0880766 
0.372739 -0.0984166 -0.168558 
0.194761 -0.0258048 -0.288484 
0.221391 0.199438 -0.198655 
0.0884314 0.238755 -0.366887 
0.356229 -0.302098 -0.245818 
0.351305 -0.149772 -0.255905 
0.450035 0.0839231 -0.255533 
0.448919 0.215935 -0.266259 
0.408064 0.450914 -0.0130851 
-0.336946 -0.393846 0.0184123 
-0.138408 -0.345343 -0.141251 
-0.433329 -0.112066 -0.180197 
-0.450009 0.0948389 -0.170918 
-0.345887 0.196869 -0.264934 
-0.144808 -0.443255 -0.167186 
-0.0637353 -0.289254 -0.176982 
-0.228641 0.450006 -0.29594 
-0.282308 0.311393 -0.281046 
-0.218259 0.435257 -0.166835 
0.040681 -0.40663 -0.07558 
-0.115388 0.450002 0.125247 
0.0321968 0.18263 -0.0893227 
-0.0714071 0.306781 -0.193532 
0.00599521 0.367485 -0.182787 
0.270742 -0.417142 -0.0246251 
0.0284323 -0.0911772 -0.00546559 
0.145749 -0.0380847 -0.135837 
0.288363 0.173535 -0.14127 
0.0701263 0.254188 -0.151717 
0.405665 -0.281957 -0.153023 
0.450011 -0.146973 -0.163835 
0.330668 -0.0524281 -0.265705 
0.450003 0.277256 -0.187294 
0.301634 0.414794 -0.0781667 
-0.290676 -0.353982 -0.0591927 
-0.418394 0.000536638 -0.181202 
-0.393739 -0.2961 -0.0649562 
-0.431656 0.13683 -0.284222 
-0.450019 0.450007 -0.104109 
-0.155781 -0.427289 -0.0668266 
-0.136756 -0.320631 -0.0434143 
-0.281153 0.0909115 -0.305173 
-0.134686 0.279145 -0.104139 
-0.250033 0.381243 -0.094625 
-0.0219223 -0.426183 -0.0132029 
-0.407199 -0.173598 -0.316888 
0.0112866 -0.00295403 -0.220148 
-0.0436308 0.290812 -0.0863002 
-0.00876418 0.443648 -0.127764 
0.152484 -0.390332 -0.0123229 
0.451631 0.00320835 0.0177473 
0.0756318 -0.0283587 -0.0688438 
0.304031 0.336691 -0.201971 
0.281755 0.450013 -0.184839 
0.372872 -0.449999 -0.0176658 
0.439253 -0.0456247 0.0941507 
0.246056 -0.0566587 -0.350221 
0.348032 0.252743 -0.187721 
0.439409 0.452654 0.0755637 
-0.348662 -0.214572 0.00730589 
-0.388537 -0.271949 -0.161581 
-0.418306 0.101521 -0.0896678 
-0.388231 0.315633 -0.211523 
-0.45 0.365512 -0.273605 
-0.174138 -0.433827 0.0528705 
-0.0580632 -0.149507 -0.214485 
-0.224797 0.291074 -0.085052 
-0.101796 0.386043 -0.162382 
-0.0739076 0.440238 -0.0450794 
-0.0919392 -0.446593 0.0317428 
0.0797328 -0.166523 -0.224918 
-0.0689107 0.0660049 -0.132174 
0.0333928 0.249324 -0.028512 
0.00794475 0.423368 -0.0547439 
0.137106 -0.337183 -0.101753 
0.178374 -0.189757 -0.225282 
0.126576 0.151202 -0.181875 
0.312768 0.220912 -0.0562463 
0.171105 0.449607 -0.216646 
0.450009 -0.416611 -0.147885 
0.320675 -0.267187 0.0264454 
0.411518 -0.0217185 -0.215402 
0.369603 0.165659 -0.231878 
0.418692 0.272767 0.177948 
-0.420836 -0.381626 0.0622174 
-0.450004 -0.216326 -0.237255 
-0.365448 0.218405 -0.0747963 
-0.44783 0.0628997 0.00178077 
-0.450009 0.194501 -0.105261 
-0.227088 -0.379219 0.00333634 
-0.277486 -0.111159 -0.0960085 
-0.322521 -0.109793 -0.185262 
-0.191261 0.356603 0.00546906 
-0.132421 0.399874 0.030165 
0.0407913 -0.187105 -0.12464 
-0.150374 -0.248591 -0.118983 
0.219666 0.136038 -0.0745235 
0.105554 0.317458 -0.0318769 
-0.0206829 0.439503 0.0363005 
0.0776922 -0.215209 -0.0154761 
0.455151 -0.0721194 -0.106352 
0.281581 0.0623435 -0.0196457 
0.190579 0.224224 -0.109377 
0.103788 0.336449 0.0858294 
0.399 -0.0787999 0.00883336 
0.4488 -0.267176 -0.0045118 
0.365729 0.0106533 -0.126589 
0.426542 0.111882 -0.0835059 
0.32709 0.318549 -0.105429 
-0.427501 -0.179762 -0.129052 
-0.450002 -0.241626 -0.0268107 
-0.396325 -0.00581861 -0.0865994 
-0.449944 0.282473 0.0594838 
-0.342826 0.448202 -0.14022 
-0.239163 -0.304495 0.0675588 
-0.274276 -0.275066 -0.0141733 
-0.326661 0.0624711 -0.0431886 
-0.119403 0.218768 -0.0391114 
-0.127165 0.193959 0.0393238 
0.0270871 -0.312165 -0.00934502 
-0.121117 -0.104747 -0.105013 
0.111443 0.11308 -0.0896235 
-0.156019 0.10517 -0.122961 
0.0419124 0.409794 0.117452 
0.0394099 -0.291552 -0.139064 
0.285143 -0.0738218 -0.009903 
0.267615 0.0238619 -0.0928275 
0.185146 0.281219 -0.0295882 
0.149042 0.326043 -0.14781 
0.328184 -0.341739 0.0926647 
0.257746 -0.178086 -0.0671809 
0.416365 0.187326 -0.0186653 
0.40939 0.235273 -0.106139 
0.437317 0.276537 0.00837646 
-0.336296 -0.347049 0.101365 
-0.338701 -0.226561 -0.235449 
-0.447928 -0.0602269 -0.0167237 
-0.449993 0.132155 0.0747028 
-0.27989 0.366304 0.00555561 
-0.0622045 -0.181016 -0.128188 
-0.177883 -0.233284 -0.0140495 
-0.234305 0.00234218 -0.0344531 
-0.28678 0.21774 -0.00320804 
-0.204554 0.411642 0.0967107 
0.209889 -0.0593615 -0.0941415 
0.00158914 -0.0809396 -0.158328 
-0.136495 -0.0331528 0.128925 
-0.0231272 0.243295 0.0483982 
-0.0712809 0.350264 0.0844186 
0.314841 -0.44155 0.076469 
0.328727 -0.210312 0.111013 
0.177828 0.0395618 -0.122515 
0.263677 0.28825 0.0162951 
0.240185 0.450002 -0.00463206 
0.447937 -0.165951 0.0153847 
0.315761 0.362409 0.00172531 
0.449975 0.0882385 0.0107899 
0.432213 0.161392 0.0766059 
0.385034 0.367389 0.0710667 
-0.402463 -0.395807 0.147811 
-0.435557 -0.264811 0.0693821 
-0.195971 -0.0727198 -0.0686458 
-0.444513 0.269691 -0.0395571 
-0.388464 0.352652 0.0234874 
-0.210849 -0.392856 0.105109 
-0.247705 -0.00250459 0.126168 
-0.0423172 -0.0130179 -0.0769734 
-0.278683 0.136718 -0.0912757 
-0.284735 0.399267 0.167378 
0.187566 -0.430177 0.0688232 
0.119338 -0.133697 -0.126471 
0.032448 0.0524929 -0.114366 
-0.0891347 0.107883 0.0773513 
-0.0411636 0.411157 0.165327 
0.307825 -0.41435 0.171905 
0.205464 -0.116099 0.0015706 
0.0965657 0.19159 0.0129019 
0.2698 0.169871 0.156458 
0.156206 0.417315 -0.0492753 
0.414169 -0.45001 0.0747502 
0.331832 -0.161184 0.0332379 
-0.213747 0.132854 0.0428538 
0.365205 0.207622 0.134672 
0.317601 0.450413 0.0679283 
-0.44187 -0.450705 0.182559 
-0.27842 0.0512168 0.043682 
-0.395549 0.0011579 0.0455155 
-0.419949 0.15783 -0.0171529 
-0.450008 0.417512 0.0925978 
-0.296607 -0.449742 0.075357 
-0.237884 -0.153505 0.0723885 
-0.173448 0.0326004 0.0388912 
-0.345393 0.129529 0.05917 
-0.432141 0.405177 0.198655 
0.238652 -0.252383 0.125689 
-0.0455919 -0.14518 -0.051265 
-0.0899277 0.0622854 -0.00744036 
0.0229577 0.331326 0.0307539 
0.0130339 0.314603 0.128548 
0.193824 -0.247714 -0.0589811 
0.214714 -0.296819 0.0353596 
0.193235 -0.0142421 -0.0172813 
0.192437 0.170432 0.0143507 
0.079793 0.425689 0.0146568 
0.425334 -0.357305 0.110523 
0.45 -0.15184 0.114363 
0.347258 0.00750234 0.0276157 
0.273753 0.166066 0.0676332 
0.450623 0.35388 0.125048 
-0.31158 -0.310722 0.164716 
-0.202348 -0.0610173 0.0589574 
-0.439257 -0.00771041 0.150922 
-0.370837 0.221886 0.050981 
-0.363446 0.448985 0.131522 
-0.179585 -0.243605 0.085621 
-0.203179 -0.188572 0.159365 
-0.0874056 -0.0248548 0.0416145 
-0.315112 0.312337 0.0819957 
-0.220152 0.237956 0.0689388 
-0.0477638 -0.115472 0.0466936 
-0.0149228 -0.252344 -0.0675466 
0.0179911 0.00259256 0.00124962 
0.236113 -0.155087 0.0804665 
0.0129911 0.448575 0.226726 
0.207691 -0.384647 0.159262 
0.44453 -0.299807 0.179922 
0.309272 0.0622427 0.106611 
0.177672 0.247343 0.0721359 
0.18291 0.366077 0.0323378 
0.403853 -0.406081 0.199325 
0.449671 -0.202843 0.200368 
0.32522 -0.0723608 0.0836144 
0.400604 0.0921266 0.141438 
0.231067 0.424452 0.105708 
VERTICES 500 1000
1 0
1 1
1 2
1 3
1 4
1 5
1 6
1 7
1 8
1 9
1 10
1 11
1 12
1 13
1 14
1 15
1 16
1 17
1 18
1 19
1 20
1 21
1 22
1 23
1 24
1 25
1 26
1 27
1 28
1 29
1 30
1 31
1 32
1 33
1 34
1 35
1 36
1 37
1 38
1 39
1 40
1 41
1 42
1 43
1 44
1 45
1 46
1 47
1 48
1 49
1 50
1 51
1 52
1 53
1 54
1 55
1 56
1 57
1 58
1 59
1 60
1 61
1 62
1 63
1 64
1 65
1 66
1 67
1 68
1 69
1 70
1 71
1 72
1 73
1 74
1 75
1 76
1 77
1 78
1 79
1 80
1 81
1 82
1 83
1 84
1 85
1 86
1 87
1 88
1 89
1 90
1 91
1 92
1 93
1 94
1 95
1 96
1 97
1 98
1 99
1 100
1 101
1 102
1 103
1 104
1 105
1 106
1 107
1 108
1 109
1 110
1 111
1 112
1 113
1 114
1 115
1 116
1 117
1 118
1 119
1 120
1 121
1 122
1 123
1 124
1 125
1 126
1 127
1 128
1 129
1 130
1 131
1 132
1 133
1 134
1 135
1 136
1 137
1 138
1 139
1 140
1 141
1 142
1 143
1 144
1 145
1 146
1 147
1 148
1 149
1 150
1 151
1 152
1 153
1 154
1 155
1 156
1 157
1 158
1 159
1 160
1 161
1 162
1 163
1 164
1 165
1 166
1 167
1 168
1 169
1 170
1 171
1 172
1 173
1 174
1 175
1 176
1 177
1 178
1 179
1 180
1 181
1 182
1 183
1 184
1 185
1 186
1 187
1 188
1 189
1 190
1 191
1 192
1 193
1 194
1 195
1 196
1 197
1 198
1 199
1 200
1 201
1 202
1 203
1 204
1 205
1 206
1 207
1 208
1 209
1 210
1 211
1 212
1 213
1 214
1 215
1 216
1 217
1 218
1 219
1 220
1 221
1 222
1 223
1 224
1 225
1 226
1 227
1 228
1 229
1 230
1 231
1 232
1 233
1 234
1 235
1 236
1 237
1 238
1 239
1 240
1 241
1 242
1 243
1 244
1 245
1 246
1 247
1 248
1 249
1 250
1 251
1 252
1 253
1 254
1 255
1 256
1 257
1 258
1 259
1 260
1 261
1 262
1 263
1 264
1 265
1 266
1 267
1 268
1 269
1 270
1 271
1 272
1 273
1 274
1 275
1 276
1 277
1 278
1 279
1 280
1 281
1 282
1 283
1 284
1 285
1 286
1 287
1 288
1 289
1 290
1 291
1 292
1 293
1 294
1 295
1 296
1 297
1 298
1 299
1 300
1 301
1 302
1 303
1 304
1 305
1 306
1 307
1 308
1 309
1 310
1 311
1 312
1 313
1 314
1 315
1 316
1 317
1 318
1 319
1 320
1 321
1 322
1 323
1 324
1 325
1 326
1 327
1 328
1 329
1 330
1 331
1 332
1 333
1 334
1 335
1 336
1 337
1 338
1 339
1 340
1 341
1 342
1 343
1 344
1 345
1 346
1 347
1 348
1 349
1 350
1 351
1 352
1 353
1 354
1 355
1 356
1 357
1 358
1 359
1 360
1 361
1 362
1 363
1 364
1 365
1 366
1 367
1 368
1 369
1 370
1 371
1 372
1 373
1 374
1 375
1 376
1 377
1 378
1 379
1 380
1 381
1 382
1 383
1 384
1 385
1 386
1 387
1 388
1 389
1 390
1 391
1 392
1 393
1 394
1 395
1 396
1 397
1 398
1 399
1 400
1 401
1 402
1 403
1 404
1 405
1 406
1 407
1 408
1 409
1 410
1 411
1 412
1 413
1 414
1 415
1 416
1 417
1 418
1 419
1 420
1 421
1 422
1 423
1 424
1 425
1 426
1 427
1 428
1 429
1 430
1 431
1 432
1 433
1 434
1 435
1 436
1 437
1 438
1 439
1 440
1 441
1 442
1 443
1 444
1 445
1 446
1 447
1 448
1 449
1 450
1 451
1 452
1 453
1 454
1 455
1 456
1 457
1 458
1 459
1 460
1 461
1 462
1 463
1 464
1 465
1 466
1 467
1 468
1 469
1 470
1 471
1 472
1 473
1 474
1 475
1 476
1 477
1 478
1 479
1 480
1 481
1 482
1 483
1 484
1 485
1 486
1 487
1 488
1 489
1 490
1 491
1 492
1 493
1 494
1 495
1 496
1 497
1 498
1 499
POINT_DATA 500
SCALARS id int 1
LOOKUP_TABLE default
0
1
2
3
4
5
6
7
8
9
10
11
12
13
14
15
16
17
18
19
20
21
22
23
24
25
26
27
28
29
30
31
32
33
34
35
36
37
38
39
40
41
42
43
44
45
46
47
48
49
50
51
52
53
54
55
56
57
58
59
60
61
62
63
64
65
66
67
68
69
70
71
72
73
74
75
76
77
78
79
80
81
82
83
84
85
86
87
88
89
90
91
92
93
94
95
96
97
98
99
100
101
102
103
104
105
106
107
108
109
110
111
112
113
114
115
116
117
118
119
120
121
122
123
124
125
126
127
128
129
130
131
132
133
134
135
136
137
138
139
140
141
142
143
144
145
146
147
148
149
150
151
152
153
154
155
156
157
158
159
160
161
162
163
164
165
166
167
168
169
170
171
172
173
174
175
176
177
178
179
180
181
182
183
184
185
186
187
188
189
190
191
192
193
194
195
196
197
198
199
200
201
202
203
204
205
206
207
208
209
210
211
212
213
214
215
216
217
218
219
220
221
222
223
224
225
226
227
228
229
230
231
232
233
234
235
236
237
238
239
240
241
242
243
244
245
246
247
248
249
250
251
252
253
254
255
256
257
258
259
260
261
262
263
264
265
266
267
268
269
270
271
272
273
274
275
276
277
278
279
280
281
282
283
284
285
286
287
288
289
290
291
292
293
294
295
296
297
298
299
300
301
302
303
304
305
306
307
308
309
310
311
312
313
314
315
316
317
318
319
320
321
322
323
324
325
326
327
328
329
330
331
332
333
334
335
336
337
338
339
340
341
342
343
344
345
346
347
348
349
350
351
352
353
354
355
356
357
358
359
360
361
362
363
364
365
366
367
368
369
370
371
372
373
374
375
376
377
378
379
380
381
382
383
384
385
386
387
388
389
390
391
392
393
394
395
396
397
398
399
400
401
402
403
404
405
406
407
408
409
410
411
412
413
414
415
416
417
418
419
420
421
422
423
424
425
426
427
428
429
430
431
432
433
434
435
436
437
438
439
440
441
442
443
444
445
446
447
448
449
450
451
452
453
454
455
456
457
458
459
460
461
462
463
464
465
466
467
468
469
470
471
472
473
474
475
476
477
478
479
480
481
482
483
484
485
486
487
488
489
490
491
492
493
494
495
496
497
498
499
SCALARS type int 1
LOOKUP_TABLE default
0
0
0
0
0
0
0
0
0
0
0
0
0
0
0
0
0
0
0
0
0
0
0
0
0
0
0
0
0
0
0
0
0
0
0
0
0
0
0
0
0
0
0
0
0
0
0
0
0
0
0
0
0
0
0
0
0
0
0
0
0
0
0
0
0
0
0
0
0
0
0
0
0
0
0
0
0
0
0
0
0
0
0
0
0
0
0
0
0
0
0
0
0
0
0
0
0
0
0
0
0
0
0
0
0
0
0
0
0
0
0
0
0
0
0
0
0
0
0
0
0
0
0
0
0
0
0
0
0
0
0
0
0
0
0
0
0
0
0
0
0
0
0
0
0
0
0
0
0
0
0
0
0
0
0
0
0
0
0
0
0
0
0
0
0
0
0
0
0
0
0
0
0
0
0
0
0
0
0
0
0
0
0
0
0
0
0
0
0
0
0
0
0
0
0
0
0
0
0
0
0
0
0
0
0
0
0
0
0
0
0
0
0
0
0
0
0
0
0
0
0
0
0
0
0
0
0
0
0
0
0
0
0
0
0
0
0
0
0
0
0
0
0
0
0
0
0
0
0
0
0
0
0
0
0
0
0
0
0
0
0
0
0
0
0
0
0
0
0
0
0
0
0
0
0
0
0
0
0
0
0
0
0
0
0
0
0
0
0
0
0
0
0
0
0
0
0
0
0
0
0
0
0
0
0
0
0
0
0
0
0
0
0
0
0
0
0
0
0
0
0
0
0
0
0
0
0
0
0
0
0
0
0
0
0
0
0
0
0
0
0
0
0
0
0
0
0
0
0
0
0
0
0
0
0
0
0
0
0
0
0
0
0
0
0
0
0
0
0
0
0
0
0
0
0
0
0
0
0
0
0
0
0
0
0
0
0
0
0
0
0
0
0
0
0
0
0
0
0
0
0
0
0
0
0
0
0
0
0
0
0
0
0
0
0
0
0
0
0
0
0
0
0
0
0
0
0
0
0
0
0
0
0
0
0
0
0
0
0
0
0
0
0
0
0
0
0
0
0
0
0
0
0
0
0
0
0
0
0
0
0
0
0
0
0
0
0
0
0
0
0
0
0
0
0
0
0
0
0
0
0
0
0
0
0
0
0
0
0
0
0
0
0
0
0
0
0
0
0
0
SCALARS damp_viscous double 1
LOOKUP_TABLE default
0
0
0
0
0
0
0
0
0
0
0
0
0
0
0
0
0
0
0
0
0
0
0
0
0
0
0
0
0
0
0
0
0
0
0
0
0
0
0
0
0
0
0
0
0
0
0
0
0
0
0
0
0
0
0
0
0
0
0
0
0
0
0
0
0
0
0
0
0
0
0
0
0
0
0
0
0
0
0
0
0
0
0
0
0
0
0
0
0
0
0
0
0
0
0
0
0
0
0
0
0
0
0
0
0
0
0
0
0
0
0
0
0
0
0
0
0
0
0
0
0
0
0
0
0
0
0
0
0
0
0
0
0
0
0
0
0
0
0
0
0
0
0
0
0
0
0
0
0
0
0
0
0
0
0
0
0
0
0
0
0
0
0
0
0
0
0
0
0
0
0
0
0
0
0
0
0
0
0
0
0
0
0
0
0
0
0
0
0
0
0
0
0
0
0
0
0
0
0
0
0
0
0
0
0
0
0
0
0
0
0
0
0
0
0
0
0
0
0
0
0
0
0
0
0
0
0
0
0
0
0
0
0
0
0
0
0
0
0
0
0
0
0
0
0
0
0
0
0
0
0
0
0
0
0
0
0
0
0
0
0
0
0
0
0
0
0
0
0
0
0
0
0
0
0
0
0
0
0
0
0
0
0
0
0
0
0
0
0
0
0
0
0
0
0
0
0
0
0
0
0
0
0
0
0
0
0
0
0
0
0
0
0
0
0
0
0
0
0
0
0
0
0
0
0
0
0
0
0
0
0
0
0
0
0
0
0
0
0
0
0
0
0
0
0
0
0
0
0
0
0
0
0
0
0
0
0
0
0
0
0
0
0
0
0
0
0
0
0
0
0
0
0
0
0
0
0
0
0
0
0
0
0
0
0
0
0
0
0
0
0
0
0
0
0
0
0
0
0
0
0
0
0
0
0
0
0
0
0
0
0
0
0
0
0
0
0
0
0
0
0
0
0
0
0
0
0
0
0
0
0
0
0
0
0
0
0
0
0
0
0
0
0
0
0
0
0
0
0
0
0
0
0
0
0
0
0
0
0
0
0
0
0
0
0
0
0
0
0
0
0
0
0
0
0
0
0
0
0
0
0
0
0
0
0
0
0
0
0
0
0
0
0
0
0
0
0
0
0
0
SCALARS damp_numerical double 1
LOOKUP_TABLE default
0.5
0.5
0.5
0.5
0.5
0.5
0.5
0.5
0.5
0.5
0.5
0.5
0.5
0.5
0.5
0.5
0.5
0.5
0.5
0.5
0.5
0.5
0.5
0.5
0.5
0.5
0.5
0.5
0.5
0.5
0.5
0.5
0.5
0.5
0.5
0.5
0.5
0.5
0.5
0.5
0.5
0.5
0.5
0.5
0.5
0.5
0.5
0.5
0.5
0.5
0.5
0.5
0.5
0.5
0.5
0.5
0.5
0.5
0.5
0.5
0.5
0.5
0.5
0.5
0.5
0.5
0.5
0.5
0.5
0.5
0.5
0.5
0.5
0.5
0.5
0.5
0.5
0.5
0.5
0.5
0.5
0.5
0.5
0.5
0.5
0.5
0.5
0.5
0.5
0.5
0.5
0.5
0.5
0.5
0.5
0.5
0.5
0.5
0.5
0.5
0.5
0.5
0.5
0.5
0.5
0.5
0.5
0.5
0.5
0.5
0.5
0.5
0.5
0.5
0.5
0.5
0.5
0.5
0.5
0.5
0.5
0.5
0.5
0.5
0.5
0.5
0.5
0.5
0.5
0.5
0.5
0.5
0.5
0.5
0.5
0.5
0.5
0.5
0.5
0.5
0.5
0.5
0.5
0.5
0.5
0.5
0.5
0.5
0.5
0.5
0.5
0.5
0.5
0.5
0.5
0.5
0.5
0.5
0.5
0.5
0.5
0.5
0.5
0.5
0.5
0.5
0.5
0.5
0.5
0.5
0.5
0.5
0.5
0.5
0.5
0.5
0.5
0.5
0.5
0.5
0.5
0.5
0.5
0.5
0.5
0.5
0.5
0.5
0.5
0.5
0.5
0.5
0.5
0.5
0.5
0.5
0.5
0.5
0.5
0.5
0.5
0.5
0.5
0.5
0.5
0.5
0.5
0.5
0.5
0.5
0.5
0.5
0.5
0.5
0.5
0.5
0.5
0.5
0.5
0.5
0.5
0.5
0.5
0.5
0.5
0.5
0.5
0.5
0.5
0.5
0.5
0.5
0.5
0.5
0.5
0.5
0.5
0.5
0.5
0.5
0.5
0.5
0.5
0.5
0.5
0.5
0.5
0.5
0.5
0.5
0.5
0.5
0.5
0.5
0.5
0.5
0.5
0.5
0.5
0.5
0.5
0.5
0.5
0.5
0.5
0.5
0.5
0.5
0.5
0.5
0.5
0.5
0.5
0.5
0.5
0.5
0.5
0.5
0.5
0.5
0.5
0.5
0.5
0.5
0.5
0.5
0.5
0.5
0.5
0.5
0.5
0.5
0.5
0.5
0.5
0.5
0.5
0.5
0.5
0.5
0.5
0.5
0.5
0.5
0.5
0.5
0.5
0.5
0.5
0.5
0.5
0.5
0.5
0.5
0.5
0.5
0.5
0.5
0.5
0.5
0.5
0.5
0.5
0.5
0.5
0.5
0.5
0.5
0.5
0.5
0.5
0.5
0.5
0.5
0.5
0.5
0.5
0.5
0.5
0.5
0.5
0.5
0.5
0.5
0.5
0.5
0.5
0.5
0.5
0.5
0.5
0.5
0.5
0.5
0.5
0.5
0.5
0.5
0.5
0.5
0.5
0.5
0.5
0.5
0.5
0.5
0.5
0.5
0.5
0.5
0.5
0.5
0.5
0.5
0.5
0.5
0.5
0.5
0.5
0.5
0.5
0.5
0.5
0.5
0.5
0.5
0.5
0.5
0.5
0.5
0.5
0.5
0.5
0.5
0.5
0.5
0.5
0.5
0.5
0.5
0.5
0.5
0.5
0.5
0.5
0.5
0.5
0.5
0.5
0.5
0.5
0.5
0.5
0.5
0.5
0.5
0.5
0.5
0.5
0.5
0.5
0.5
0.5
0.5
0.5
0.5
0.5
0.5
0.5
0.5
0.5
0.5
0.5
0.5
0.5
0.5
0.5
0.5
0.5
0.5
0.5
0.5
0.5
0.5
0.5
0.5
0.5
0.5
0.5
0.5
0.5
0.5
0.5
0.5
0.5
0.5
0.5
0.5
0.5
0.5
0.5
0.5
0.5
0.5
0.5
0.5
0.5
0.5
0.5
0.5
0.5
0.5
0.5
0.5
0.5
0.5
0.5
0.5
0.5
0.5
0.5
0.5
0.5
0.5
0.5
0.5
0.5
0.5
0.5
0.5
0.5
0.5
0.5
0.5
0.5
0.5
0.5
0.5
0.5
0.5
SCALARS quat double 4
LOOKUP_TABLE default
0.962925 0.0903777 -0.0548967 0.248182 
0.785428 0.147661 0.601009 0.00931214 
0.988639 0.0995267 -0.0488728 -0.101482 
-0.371649 -0.475436 -0.555588 -0.571978 
0.0809919 0.705099 -0.374247 0.596838 
0.802786 -0.275345 -0.201924 0.488821 
0.1086 -0.301624 -0.319923 0.891559 
0.877966 0.0548611 0.341768 0.330697 
-0.111928 0.420585 0.900258 -0.0107808 
0.0853537 0.0912828 -0.00292829 0.992156 
0.923078 -0.144848 -0.0908451 0.344519 
0.167528 -0.910675 -0.23991 -0.29163 
0.0806081 0.406137 -0.051601 0.908786 
0.593425 0.712571 0.358986 -0.105921 
0.337729 0.816865 -0.184969 0.429484 
0.996141 0.0801812 -0.0356433 -0.00166941 
0.640802 0.0531376 -0.0345013 0.765088 
0.988723 0.0797122 -0.0243837 0.124415 
0.973166 0.112445 -0.0906279 0.17914 
-0.767501 0.170195 0.610349 0.0972114 
0.836308 0.129207 0.508613 -0.15877 
-0.300685 0.852311 -0.285962 0.318402 
0.775976 -0.287983 -0.471366 -0.304535 
0.542358 0.742746 -0.374375 -0.118406 
0.98426 0.101883 -0.0981376 0.105927 
0.931974 0.155288 -0.171076 0.279361 
-0.591386 0.714422 -0.31457 0.202259 
0.975605 0.154214 -0.127745 -0.089967 
0.696158 -0.403683 -0.434952 0.404006 
-0.159747 0.388672 -0.338692 0.841845 
0.735035 0.350078 0.507435 0.282273 
0.391199 -0.667109 -0.159387 -0.613616 
0.139887 -0.045937 -0.947418 0.284115 
0.169605 0.123127 0.0741547 0.974974 
0.545257 0.741436 0.183151 -0.345578 
0.411545 -0.149945 0.0409849 0.898035 
-0.297223 0.504797 -0.493979 0.642514 
0.247573 0.326856 0.281941 0.867399 
0.730488 -0.628035 -0.255928 0.080377 
0.582232 0.638309 -0.106957 -0.492065 
0.946207 0.143227 -0.15784 0.243442 
0.700684 0.191094 -0.107166 0.679 
0.977126 -0.207302 -0.046364 0.0100399 
0.00855744 0.818958 0.552778 -0.153852 
0.731537 -0.572084 -0.313065 -0.198908 
0.329552 0.27052 -0.680241 0.596227 
0.54884 -0.183344 0.14036 -0.803405 
-0.952165 0.134156 -0.178882 0.20829 
0.412738 0.774807 -0.385352 0.284297 
-0.842874 0.508001 0.0980288 -0.147946 
0.927605 0.295054 -0.204126 -0.104042 
0.325013 -0.117486 0.884177 -0.314315 
0.827338 -0.0726775 0.556897 0.00979824 
-0.662761 0.426332 -0.615184 -0.0231847 
-0.505006 0.490534 0.483025 -0.520607 
-0.61066 0.475404 0.477386 -0.416158 
0.128605 0.217175 0.964566 -0.0768691 
0.0745555 -0.0552234 -0.847231 -0.523059 
-0.187726 0.0417027 0.781924 -0.592971 
0.349418 -0.912766 -0.210683 0.01944 
-0.447446 0.228754 0.65897 -0.559662 
-0.861007 -0.0828916 -0.0113179 0.501664 
-0.280582 -0.713996 0.13109 0.627932 
0.105304 0.238706 0.956684 0.129174 
-0.111656 0.0309463 0.991389 -0.0610164 
0.913055 0.249236 -0.288146 -0.14555 
-0.126552 -0.953773 -0.184632 0.200534 
0.961182 -0.164149 -0.131052 0.178911 
0.894195 0.0145199 0.411097 -0.176644 
-0.929486 -0.0879161 -0.106206 -0.34212 
0.63937 -0.415332 -0.291985 0.577451 
-0.565535 -0.745934 -0.341564 -0.0841867 
0.358873 0.366928 0.0368708 -0.857446 
-0.583893 0.745853 -0.294231 -0.12728 
0.943841 -0.24462 0.022364 -0.220966 
0.960262 0.114987 -0.1166 -0.226006 
0.55857 -0.0870933 -0.63395 0.527752 
0.880836 -0.270986 0.369164 -0.120053 
-0.582458 -0.20456 -0.123204 0.776993 
-0.54278 0.180342 -0.0965055 -0.814588 
0.892772 0.246231 0.0299838 -0.376071 
-0.337748 0.877639 0.0349832 0.338309 
0.930385 -0.134683 0.316997 -0.125528 
-0.224207 0.828345 -0.278086 0.431559 
0.965275 -0.239137 0.00637117 -0.10496 
0.758486 -0.478766 -0.403472 0.180809 
-0.168465 -0.333976 0.0954795 -0.922477 
0.762882 0.432256 0.267875 -0.399261 
0.320203 0.926443 0.0747299 -0.183271 
-0.185241 0.554995 -0.663066 0.466915 
0.863646 -0.224838 0.385754 -0.234004 
-0.815513 0.360704 -0.451777 0.0269934 
0.883387 -0.0317645 -0.395 0.250185 
0.843091 -0.367777 0.391555 0.0249538 
0.791968 0.0293168 0.358121 -0.493635 
0.248507 -0.511521 -0.441042 -0.694315 
0.289329 -0.791483 0.480399 0.243022 
0.232505 -0.232051 -0.71554 0.616519 
-0.605626 0.583079 0.16519 -0.515702 
0.982406 -0.114523 -0.0201256 -0.146141 
0.840962 -0.0871804 -0.102042 -0.524185 
0.309852 0.524319 0.73762 0.291545 
-0.0270824 0.438682 -0.895883 0.0649515 
-0.618852 -0.587125 -0.519084 -0.0534543 
-0.213483 -0.0880522 -0.408921 0.882868 
0.943071 -0.150342 0.25029 0.159279 
-0.778159 0.476279 0.25013 -0.324133 
0.122681 0.746177 0.65317 -0.0392129 
0.82089 0.446884 -0.116058 -0.336103 
0.00898944 0.211047 -0.974895 0.0704183 
0.276357 -0.587885 -0.288473 0.703422 
-0.393896 -0.299549 0.672849 0.549901 
-0.0782161 -0.372393 0.24809 -0.890874 
0.81931 -0.262402 0.475004 0.185062 
-0.234641 0.0638705 0.0865702 0.966111 
0.902528 -0.359436 0.23716 0.00204036 
0.00341876 -0.80355 0.593718 0.042363 
0.446301 -0.0752447 -0.399277 0.797328 
0.885107 0.0919541 0.084361 0.448345 
0.234564 0.151854 -0.821381 0.497246 
-0.0226664 0.0970543 0.449931 -0.887485 
-0.126828 -0.268585 -0.732185 0.612928 
0.329001 -0.460783 -0.420384 -0.709024 
-0.930979 -0.220729 -0.188883 0.221088 
0.758285 -0.610009 0.00385649 0.229954 
0.774726 0.299671 -0.532888 -0.161332 
0.417626 0.630757 0.55969 -0.338351 
0.515113 0.272892 0.198184 -0.78798 
-0.465318 0.265738 0.827593 -0.167188 
0.447867 -0.442107 0.704503 0.328074 
-0.0238639 0.508767 0.728222 -0.458562 
-0.993996 -0.0664601 -0.0508088 0.0705161 
-0.0790164 -0.595042 -0.799169 -0.0317749 
0.211119 0.20951 -0.948219 0.11142 
0.120893 -0.913233 0.209525 0.327858 
0.130721 -0.0592793 0.817276 0.558085 
0.272352 0.742694 0.219173 0.571133 
-0.672987 -0.731036 0.0570834 -0.0970414 
0.312758 0.912285 -0.176067 -0.197279 
-0.0511735 0.815412 -0.576337 0.0178875 
-0.505482 0.0747405 -0.82356 0.246273 
0.435788 -0.270615 0.281735 0.810853 
-0.0971209 0.501123 -0.120472 0.851428 
0.935397 -0.274853 -0.18361 0.125599 
0.0140672 -0.508717 -0.779453 -0.365324 
-0.466501 -0.81237 0.240849 0.253817 
0.726303 -0.530856 0.343372 -0.269761 