# vtk DataFile Version 2.0
Generated by NetDEM
ASCII 
DATASET POLYDATA
POINTS 150 double
-0.417546 -0.405628 -0.463014 
-0.403333 -0.203333 -0.450036 
-0.411499 -0.00495455 -0.464013 
-0.40295 0.19705 -0.450027 
-0.402763 0.397237 -0.450027 
-0.2376 -0.434793 -0.455109 
-0.203538 -0.203538 -0.450046 
-0.203218 -0.00321788 -0.450028 
-0.173839 0.192424 -0.461966 
-0.24834 0.369605 -0.46421 
-0.0237054 -0.410883 -0.451482 
-0.00366947 -0.203669 -0.450031 
-0.00360232 -0.00360232 -0.450028 
0.0131665 0.177477 -0.449292 
-0.0376052 0.396959 -0.463642 
0.191954 -0.398877 -0.463189 
0.1746 -0.213037 -0.464883 
0.172453 -0.00903183 -0.46246 
0.159709 0.215911 -0.463388 
0.196913 0.396913 -0.450027 
0.396713 -0.403287 -0.450028 
0.39661 -0.20339 -0.450027 
0.396488 -0.00351175 -0.450044 
0.396508 0.196508 -0.450027 
0.395216 0.407525 -0.442878 
-0.407717 -0.401333 -0.389073 
-0.403333 -0.203333 -0.350063 
-0.415778 -0.00715718 -0.391886 
-0.40295 0.19705 -0.350048 
-0.402763 0.397237 -0.350048 
-0.236001 -0.403121 -0.360071 
-0.203538 -0.203538 -0.350087 
-0.203218 -0.00321788 -0.350048 
-0.223339 0.183021 -0.391473 
-0.184253 0.385876 -0.398077 
-0.00459218 -0.399045 -0.365947 
-0.00366947 -0.203669 -0.350053 
-0.00360232 -0.00360232 -0.35005 
0.00242536 0.192586 -0.346063 
-0.0147384 0.388704 -0.373846 
0.19443 -0.398301 -0.39003 
0.195632 -0.214077 -0.3923 
0.184107 -0.0147383 -0.384193 
0.175043 0.190405 -0.372573 
0.196913 0.396913 -0.350047 
0.396713 -0.403287 -0.35005 
0.39661 -0.20339 -0.350047 
0.396488 -0.00351175 -0.350085 
0.396508 0.196508 -0.350047 
0.392109 0.39462 -0.344727 
-0.406147 -0.403801 -0.312043 
-0.403333 -0.203333 -0.25008 
-0.402823 -0.00435291 -0.309753 
-0.40295 0.19705 -0.250061 
-0.402763 0.397237 -0.250061 
-0.195025 -0.40115 -0.251851 
-0.203538 -0.203538 -0.250119 
-0.203218 -0.00321788 -0.250062 
-0.206209 0.197615 -0.293525 
-0.197353 0.401818 -0.324125 
0.00279388 -0.40427 -0.274065 
-0.00366947 -0.203669 -0.250068 
-0.00360232 -0.00360232 -0.250064 
-0.0122576 0.198603 -0.246399 
0.00786973 0.393076 -0.285585 
0.182707 -0.399898 -0.316092 
0.191867 -0.202387 -0.300443 
0.190178 -0.00451764 -0.304083 
0.206624 0.194927 -0.287046 
0.196913 0.396913 -0.250061 
0.396713 -0.403287 -0.250064 
0.39661 -0.20339 -0.250061 
0.396488 -0.00351175 -0.25012 
0.396508 0.196508 -0.25006 
0.396915 0.389082 -0.23693 
-0.406312 -0.403606 -0.235458 
-0.403333 -0.203333 -0.150088 
-0.404877 -0.00262551 -0.232576 
-0.40295 0.19705 -0.150068 
-0.402763 0.397237 -0.150068 
-0.197241 -0.403085 -0.128422 
-0.203538 -0.203538 -0.150138 
-0.203218 -0.00321788 -0.150069 
-0.199986 0.193334 -0.193116 
-0.205469 0.395744 -0.227113 
-0.0079495 -0.403772 -0.184678 
-0.00366947 -0.203669 -0.150075 
-0.00360232 -0.00360232 -0.150072 
-0.00081096 0.195723 -0.138436 
-0.00382625 0.400392 -0.198921 
0.199706 -0.403517 -0.226744 
0.195527 -0.203204 -0.211589 
0.193935 -0.00281374 -0.232432 
0.195891 0.196783 -0.199354 
0.196913 0.396913 -0.150067 
0.396713 -0.403287 -0.150072 
0.39661 -0.20339 -0.150067 
0.396488 -0.00351175 -0.150142 
0.396508 0.196508 -0.150067 
0.399378 0.396686 -0.126542 
-0.403633 -0.403633 -0.0431383 
-0.403333 -0.203333 -0.0428377 
-0.403998 -0.00399844 -0.0435036 
-0.40295 0.19705 -0.0424556 
-0.402763 0.397237 -0.0422684 
-0.203348 -0.403057 -0.0216325 
-0.203538 -0.203538 -0.0430434 
-0.203218 -0.00321788 -0.042723 
-0.203937 0.196063 -0.0434425 
-0.203347 0.396653 -0.0428521 
-0.00292062 -0.402921 -0.0424258 
-0.00366947 -0.203669 -0.0431746 
-0.00360232 -0.00360232 -0.0431075 
-0.0019849 0.19794 -0.0161697 
-0.00266816 0.397332 -0.0421733 
0.197698 -0.402302 -0.0418073 
0.196222 -0.203778 -0.0432834 
0.197391 -0.00260897 -0.0421141 
0.197198 0.197198 -0.0423074 
0.196913 0.396913 -0.0425921 
0.396713 -0.403287 -0.0427926 
0.39661 -0.20339 -0.0428956 
0.396488 -0.00351175 -0.0430169 
0.396508 0.196508 -0.0429973 
0.396897 0.396385 -0.0177284 
-0.403633 -0.403633 0.220651 
-0.403333 -0.203333 0.220952 
-0.403998 -0.00399844 0.220286 
-0.40295 0.19705 0.221334 
-0.402763 0.397237 0.221521 
-0.203099 -0.403099 0.221185 
-0.203538 -0.203538 0.220746 
-0.203218 -0.00321788 0.221066 
-0.203937 0.196063 0.220347 
-0.203347 0.396653 0.220937 
-0.00292062 -0.402921 0.221364 
-0.00366947 -0.203669 0.220615 
-0.00360232 -0.00360232 0.220682 
-0.00217008 0.19783 0.222114 
-0.00266816 0.397332 0.221616 
0.197698 -0.402302 0.221982 
0.196222 -0.203778 0.220506 
0.197391 -0.00260897 0.221675 
0.197198 0.197198 0.221482 
0.196913 0.396913 0.221197 
0.396713 -0.403287 0.220997 
0.39661 -0.20339 0.220894 
0.396488 -0.00351175 0.220773 
0.396508 0.196508 0.220792 
0.396534 0.396534 0.220818 
VERTICES 150 300
1 0
1 1
1 2
1 3
1 4
1 5
1 6
1 7
1 8
1 9
1 10
1 11
1 12
1 13
1 14
1 15
1 16
1 17
1 18
1 19
1 20
1 21
1 22
1 23
1 24
1 25
1 26
1 27
1 28
1 29
1 30
1 31
1 32
1 33
1 34
1 35
1 36
1 37
1 38
1 39
1 40
1 41
1 42
1 43
1 44
1 45
1 46
1 47
1 48
1 49
1 50
1 51
1 52
1 53
1 54
1 55
1 56
1 57
1 58
1 59
1 60
1 61
1 62
1 63
1 64
1 65
1 66
1 67
1 68
1 69
1 70
1 71
1 72
1 73
1 74
1 75
1 76
1 77
1 78
1 79
1 80
1 81
1 82
1 83
1 84
1 85
1 86
1 87
1 88
1 89
1 90
1 91
1 92
1 93
1 94
1 95
1 96
1 97
1 98
1 99
1 100
1 101
1 102
1 103
1 104
1 105
1 106
1 107
1 108
1 109
1 110
1 111
1 112
1 113
1 114
1 115
1 116
1 117
1 118
1 119
1 120
1 121
1 122
1 123
1 124
1 125
1 126
1 127
1 128
1 129
1 130
1 131
1 132
1 133
1 134
1 135
1 136
1 137
1 138
1 139
1 140
1 141
1 142
1 143
1 144
1 145
1 146
1 147
1 148
1 149
POINT_DATA 150
SCALARS id int 1
LOOKUP_TABLE default
0
1
2
3
4
5
6
7
8
9
10
11
12
13
14
15
16
17
18
19
20
21
22
23
24
25
26
27
28
29
30
31
32
33
34
35
36
37
38
39
40
41
42
43
44
45
46
47
48
49
50
51
52
53
54
55
56
57
58
59
60
61
62
63
64
65
66
67
68
69
70
71
72
73
74
75
76
77
78
79
80
81
82
83
84
85
86
87
88
89
90
91
92
93
94
95
96
97
98
99
100
101
102
103
104
105
106
107
108
109
110
111
112
113
114
115
116
117
118
119
120
121
122
123
124
125
126
127
128
129
130
131
132
133
134
135
136
137
138
139
140
141
142
143
144
145
146
147
148
149
SCALARS type int 1
LOOKUP_TABLE default
0
0
0
0
0
0
0
0
0
0
0
0
0
0
0
0
0
0
0
0
0
0
0
0
0
0
0
0
0
0
0
0
0
0
0
0
0
0
0
0
0
0
0
0
0
0
0
0
0
0
0
0
0
0
0
0
0
0
0
0
0
0
0
0
0
0
0
0
0
0
0
0
0
0
0
0
0
0
0
0
0
0
0
0
0
0
0
0
0
0
0
0
0
0
0
0
0
0
0
0
0
0
0
0
0
0
0
0
0
0
0
0
0
0
0
0
0
0
0
0
0
0
0
0
0
0
0
0
0
0
0
0
0
0
0
0
0
0
0
0
0
0
0
0
0
0
0
0
0
0
SCALARS damp_viscous double 1
LOOKUP_TABLE default
0
0
0
0
0
0
0
0
0
0
0
0
0
0
0
0
0
0
0
0
0
0
0
0
0
0
0
0
0
0
0
0
0
0
0
0
0
0
0
0
0
0
0
0
0
0
0
0
0
0
0
0
0
0
0
0
0
0
0
0
0
0
0
0
0
0
0
0
0
0
0
0
0
0
0
0
0
0
0
0
0
0
0
0
0
0
0
0
0
0
0
0
0
0
0
0
0
0
0
0
0
0
0
0
0
0
0
0
0
0
0
0
0
0
0
0
0
0
0
0
0
0
0
0
0
0
0
0
0
0
0
0
0
0
0
0
0
0
0
0
0
0
0
0
0
0
0
0
0
0
SCALARS damp_numerical double 1
LOOKUP_TABLE default
0.5
0.5
0.5
0.5
0.5
0.5
0.5
0.5
0.5
0.5
0.5
0.5
0.5
0.5
0.5
0.5
0.5
0.5
0.5
0.5
0.5
0.5
0.5
0.5
0.5
0.5
0.5
0.5
0.5
0.5
0.5
0.5
0.5
0.5
0.5
0.5
0.5
0.5
0.5
0.5
0.5
0.5
0.5
0.5
0.5
0.5
0.5
0.5
0.5
0.5
0.5
0.5
0.5
0.5
0.5
0.5
0.5
0.5
0.5
0.5
0.5
0.5
0.5
0.5
0.5
0.5
0.5
0.5
0.5
0.5
0.5
0.5
0.5
0.5
0.5
0.5
0.5
0.5
0.5
0.5
0.5
0.5
0.5
0.5
0.5
0.5
0.5
0.5
0.5
0.5
0.5
0.5
0.5
0.5
0.5
0.5
0.5
0.5
0.5
0.5
0.5
0.5
0.5
0.5
0.5
0.5
0.5
0.5
0.5
0.5
0.5
0.5
0.5
0.5
0.5
0.5
0.5
0.5
0.5
0.5
0.5
0.5
0.5
0.5
0.5
0.5
0.5
0.5
0.5
0.5
0.5
0.5
0.5
0.5
0.5
0.5
0.5
0.5
0.5
0.5
0.5
0.5
0.5
0.5
0.5
0.5
0.5
0.5
0.5
0.5
SCALARS quat double 4
LOOKUP_TABLE default
0.980176 0.0882252 -0.0279226 0.175189 
0.422936 0.19358 0.881935 0.076436 
0.996436 0.0279819 -0.0795314 0.00279544 
0.933896 0.135683 0.0158348 0.330419 
0.218235 0.323535 0.831742 0.394847 
0.851533 0.0176477 0.0976651 0.514822 
0.259029 0.245797 0.696789 0.622072 
0.947128 0.0660144 0.273627 0.154011 
-0.107125 0.866812 0.46074 0.157735 
0.269128 0.100197 0.0530173 0.95641 
0.902138 0.136468 0.182424 0.366395 
0.895604 0.01201 0.325206 0.3033 
0.115508 0.577388 0.641376 0.491851 
0.663465 0.617116 0.391802 0.159602 
0.803293 0.0960547 -0.00912632 0.587717 
0.997284 0.0566922 -0.0469596 -0.00212038 
0.661817 0.148927 -0.00336105 0.734716 
0.974676 0.0740592 -0.0152726 0.210448 
0.981397 0.0353181 -0.0440122 0.183508 
0.872998 0.106465 0.203002 0.430499 
1 0.000646178 0.000193913 0.000461524 
0.464545 0.197074 0.639242 0.580284 
0.80546 0.16019 0.208233 0.531236 
0.973067 0.0554567 0.156413 0.16 
0.898567 0.389578 0.201155 0.0185036 
0.977677 0.117597 -0.106517 0.137742 
0.422936 0.19358 0.881935 0.076436 
0.975798 0.0530557 -0.197659 0.07704 
0.933896 0.135683 0.0158348 0.330419 
0.218235 0.323535 0.831742 0.394847 
0.745656 -0.051519 0.650529 0.13474 
0.259029 0.245797 0.696789 0.622072 
0.947128 0.0660144 0.273627 0.154011 
0.115728 0.724767 0.437375 0.519638 
0.00522571 0.838423 0.540531 0.0696135 
0.860142 0.255346 0.320002 0.304224 
0.895604 0.01201 0.325206 0.3033 
0.115508 0.577388 0.641376 0.491851 
0.919526 0.20019 0.335264 -0.0446455 
0.577284 0.684895 0.197976 0.39808 
0.964695 0.0808986 -0.193633 0.15914 
0.724725 0.323666 0.00590818 0.608259 
0.97453 0.109458 0.0441731 0.190679 
0.767122 0.388424 0.468172 0.203632 
0.872998 0.106465 0.203002 0.430499 
1 0.000646178 0.000193913 0.000461524 
0.464545 0.197074 0.639242 0.580284 
0.80546 0.16019 0.208233 0.531236 
0.973067 0.0554567 0.156413 0.16 
0.704932 0.626727 0.331909 0.0109614 
0.980476 0.117562 -0.11118 0.111739 
0.422936 0.19358 0.881935 0.076436 
0.983786 0.053179 -0.171009 0.00959179 
0.933896 0.135683 0.0158348 0.330419 
0.218235 0.323535 0.831742 0.394847 
0.593328 0.175218 0.722652 0.308277 
0.259029 0.245797 0.696789 0.622072 
0.947128 0.0660144 0.273627 0.154011 
-0.0641658 0.87882 0.388973 0.268809 
0.208322 0.0334324 0.0290615 0.977057 
0.877525 0.279044 0.320541 0.22212 
0.895604 0.01201 0.325206 0.3033 
0.115508 0.577388 0.641376 0.491851 
0.676583 0.598389 0.42901 0.0108067 
0.832535 0.248413 0.0585337 0.491681 
0.938851 0.148337 -0.306179 0.0530093 
0.648917 0.416706 0.00995643 0.636525 
0.974348 0.0627321 0.104898 0.188965 
0.914282 0.136799 0.353327 0.143302 
0.872998 0.106465 0.203002 0.430499 
1 0.000646178 0.000193913 0.000461524 
0.464545 0.197074 0.639242 0.580284 
0.80546 0.16019 0.208233 0.531236 
0.973067 0.0554567 0.156413 0.16 
0.850549 0.360875 0.376565 -0.0673321 
0.954939 0.194456 -0.200399 0.100589 
0.422936 0.19358 0.881935 0.076436 
0.940155 0.106657 -0.322693 0.024515 
0.933896 0.135683 0.0158348 0.330419 
0.218235 0.323535 0.831742 0.394847 
0.868591 -0.127368 0.390931 0.276585 
0.259029 0.245797 0.696789 0.622072 
0.947128 0.0660144 0.273627 0.154011 
0.085299 0.800745 0.385569 0.45041 
0.0857141 0.600211 0.40629 0.683614 
0.884224 0.347079 0.0496584 0.308574 
0.895604 0.01201 0.325206 0.3033 
0.115508 0.577388 0.641376 0.491851 
0.794555 0.346812 0.486742 -0.10717 
0.767154 0.381269 -0.154863 0.492063 
0.990773 0.123405 -0.0523027 0.0201235 
0.657337 0.372821 -0.118138 0.644171 
0.96912 0.0700582 -0.0560197 0.229696 
0.852235 0.390413 -0.00747726 0.348164 
0.872998 0.106465 0.203002 0.430499 
1 0.000646178 0.000193913 0.000461524 
0.464545 0.197074 0.639242 0.580284 
0.80546 0.16019 0.208233 0.531236 
0.973067 0.0554567 0.156413 0.16 
0.830622 0.498054 0.248866 -0.00868285 
0.987695 0.113077 0.0865597 0.064658 
0.422936 0.19358 0.881935 0.076436 
0.999938 0.00834925 0.00519597 0.00514693 
0.933896 0.135683 0.0158348 0.330419 
0.218235 0.323535 0.831742 0.394847 
0.819159 0.00544328 0.495377 0.289049 
0.259029 0.245797 0.696789 0.622072 
0.947128 0.0660144 0.273627 0.154011 
0.114949 0.809678 0.432343 0.379853 
0.241786 0.448885 0.409847 0.756351 
0.907485 0.19221 0.316201 0.198854 
0.895604 0.01201 0.325206 0.3033 
0.115508 0.577388 0.641376 0.491851 
0.811257 0.508557 0.285964 0.0381537 
0.824488 0.388943 0.180706 0.369174 
0.997984 0.0571643 0.0186911 0.0202818 
0.733928 0.293165 0.134605 0.597734 
0.94956 0.0531351 0.230499 0.205872 
0.894099 0.242412 0.307197 0.217838 
0.872998 0.106465 0.203002 0.430499 
1 0.000646178 0.000193913 0.000461524 
0.464545 0.197074 0.639242 0.580284 
0.80546 0.16019 0.208233 0.531236 
0.973067 0.0554567 0.156413 0.16 
0.85643 0.473178 0.206047 0.0132576 
0.987695 0.113077 0.0865597 0.064658 
0.422936 0.19358 0.881935 0.076436 
0.999938 0.00834925 0.00519597 0.00514693 
0.933896 0.135683 0.0158348 0.330419 
0.218235 0.323535 0.831742 0.394847 
0.822268 0.00687642 0.488428 0.292003 
0.259029 0.245797 0.696789 0.622072 
0.947128 0.0660144 0.273627 0.154011 
0.114949 0.809678 0.432343 0.379853 
0.241786 0.448885 0.409847 0.756351 
0.907485 0.19221 0.316201 0.198854 
0.895604 0.01201 0.325206 0.3033 
0.115508 0.577388 0.641376 0.491851 
0.835101 0.483927 0.255872 0.054317 
0.824488 0.388943 0.180706 0.369174 
0.997984 0.0571643 0.0186911 0.0202818 
0.733928 0.293165 0.134605 0.597734 
0.94956 0.0531351 0.230499 0.205872 
0.894099 0.242412 0.307197 0.217838 
0.872998 0.106465 0.203002 0.430499 
1 0.000646178 0.000193913 0.000461524 
0.464545 0.197074 0.639242 0.580284 
0.80546 0.16019 0.208233 0.531236 
0.973067 0.0554567 0.156413 0.16 
0.85666 0.475253 0.200024 0.0160836 
VECTORS vel double
0.0284655 -0.0290546 0.00726305 
0 0 0.00450397 
-0.0513943 -0.0735343 -0.0539511 
0 0 -0.00134095 
0 0 -0.000122419 
-0.20887 -0.0482944 -0.133356 
0 0 -0.00366234 
0 0 0.000403835 
0.0329473 -0.0541764 -0.0201094 
-0.0699575 0.00750404 0.0290114 
-0.00393347 -0.053759 -0.00213235 
0 0 0.00494389 
0 0 -0.000621382 
0.117566 -0.189676 -0.0862695 
-0.0396052 -0.0795943 -0.0388702 
-0.0510956 0.0999736 -0.0194701 
0.00136359 -0.000813257 -6.62119e-05 
-0.0633794 -0.0594136 -0.0646173 
-0.209597 -0.039557 -0.0777451 
0 0 -0.000129756 
0 0 -0.000630935 
0 0 -0.000129522 
0 0 -0.00672795 
0 0 -3.10765e-05 
-0.144408 0.197015 -0.0202923 
0.0213449 -0.0222679 -0.0388761 
0 0 0.00874903 
-0.0850822 -0.0489357 -0.0396576 
0 0 -0.00249778 
0 0 -0.000231786 
-0.294335 0.00929334 -0.225925 
0 0 -0.00211502 
0 0 0.000773276 
-0.200281 -0.019038 -0.174721 
0.208552 0.0134077 -0.215994 
-0.0101625 -0.0658131 -0.00286102 
0 0 0.00881648 
0 0 -0.0010643 
-0.0286874 0.00395002 -0.0975514 
0.00362846 -0.198763 -0.036741 
-0.106662 0.0378212 -0.0670844 
-0.00582911 0.00194345 -0.00450234 
-0.064854 -0.119616 -0.00313482 
-0.188685 -0.142562 -0.0320287 
0 0 -0.000254658 
0 0 -0.00107819 
0 0 -0.000254255 
0 0 -0.00702902 
0 0 -8.38919e-05 
-0.065121 0.00868562 -0.189255 
0.123217 0.0190735 0.0502982 
0 0 0.0111166 
0.15464 0.00510113 0.0112926 
0 0 -0.00335467 
0 0 -0.000313746 
0.0166304 -0.0175941 -0.402947 
0 0 0.00271542 
0 0 0.00105648 
-0.07482 0.0704867 -0.21208 
0.127108 0.0881367 -0.501919 
0.145122 0.0741868 -0.00316127 
0 0 0.0110582 
0 0 -0.00138423 
-0.0264466 0.0257896 -0.47328 
0.233824 -0.0419992 -0.010898 
-0.0500403 -0.0236599 -0.038702 
-0.0255466 0.0902403 0.00931182 
0.097745 0.0508096 0.0257483 
0.156913 0.0364057 -0.113363 
0 0 -0.000348051 
0 0 -0.00140107 
0 0 -0.000347509 
0 0 8.4352e-05 
0 0 -0.000121313 
0.040429 -0.106086 -0.0958553 
-0.127146 -0.0116264 -0.212383 
0 0 0.0117429 
-0.0808496 -9.44483e-05 0.00272392 
0 0 -0.00381044 
0 0 -0.000357755 
0.0796413 -0.0105436 -0.842762 
0 0 0.0109112 
0 0 0.00121136 
0.0782456 -0.0554343 -0.159211 
-0.0464588 -0.0183566 -0.361054 
-0.0926353 -0.0382702 0.0181951 
0 0 0.0120419 
0 0 -0.00155159 
-0.03586 -0.0153446 -0.281256 
-0.0194148 0.0560588 -0.564003 
0.000911188 -0.00633917 -0.131506 
-0.0340784 -0.0472593 -0.000564755 
-0.14271 -0.0220333 -0.000576927 
-0.000226585 -0.00682805 0.0214101 
0 0 -0.000397969 
0 0 -0.00156992 
0 0 -0.000397348 
0 0 0.00849749 
0 0 -0.000140447 
-0.0563641 0.0456633 -0.11987 
0 0 -2.88315 
0 0 -2.88315 
0 0 -2.88315 
0 0 -2.88315 
0 0 -2.88315 
-0.0245677 0.00162317 -0.754251 
0 0 -2.88315 
0 0 -2.88315 
0 0 -2.88315 
0 0 -2.88315 
0 0 -2.88315 
0 0 -2.88315 
0 0 -2.88315 
0.0141717 0.0100887 -0.345691 
0 0 -2.88315 
0 0 -2.88315 
0 0 -2.88315 
0 0 -2.88315 
0 0 -2.88315 
0 0 -2.88315 
0 0 -2.88315 
0 0 -2.88315 
0 0 -2.88315 
0 0 -2.88315 
0.0436348 -0.018448 -0.0505486 
0 0 -2.39265 
0 0 -2.39265 
0 0 -2.39265 
0 0 -2.39265 
0 0 -2.39265 
0 0 -2.39265 
0 0 -2.39265 
0 0 -2.39265 
0 0 -2.39265 
0 0 -2.39265 
0 0 -2.39265 
0 0 -2.39265 
0 0 -2.39265 
0 0 -2.39265 
0 0 -2.39265 
0 0 -2.39265 
0 0 -2.39265 
0 0 -2.39265 
0 0 -2.39265 
0 0 -2.39265 
0 0 -2.39265 
0 0 -2.39265 
0 0 -2.39265 
0 0 -2.39265 
0 0 -2.39265 
VECTORS spin double
0.86871 0.794805 -0.31105 
0 0 0 
2.15847 -1.30757 -0.176195 
0 0 0 
0 0 0 
0.342484 -5.47817 1.44597 
0 0 0 
0 0 0 
1.6066 0.797634 0.483583 
0.148291 -2.19399 0.922796 
1.49226 -0.201282 -0.754693 
0 0 0 
0 0 0 
4.18692 2.15004 1.07368 
2.22036 -1.08072 -0.0463733 
-2.74725 -1.30099 0.187524 
-0.049074 0.101453 -0.0356559 
2.1493 -1.26062 -0.854198 
1.37604 -5.05498 -0.75384 
0 0 0 
0 0 0 
0 0 0 
0 0 0 
0 0 0 
-3.46219 -2.64648 -0.707788 
-1.15263 -1.20804 -0.537359 
0 0 0 
-2.91032 0.64063 -0.594701 
0 0 0 
0 0 0 
-1.58906 2.13488 -0.879276 
0 0 0 
0 0 0 
-1.57487 -2.34562 2.27228 
-0.640318 10.2378 -0.773007 
-0.903388 -0.198647 -0.600441 
0 0 0 
0 0 0 
-6.91582 -4.07234 0.469483 
0.537086 1.63861 0.0911963 
4.99257 -0.829118 3.30907 
-0.134626 -0.219649 -0.0440345 
-0.920222 1.36172 -0.74012 
0.882344 4.40197 0.440819 
0 0 0 
0 0 0 
0 0 0 
0 0 0 
0 0 0 
7.29368 3.81626 -0.0822804 
-0.478646 4.25515 0.909432 
0 0 0 
1.48826 5.89697 1.50324 
0 0 0 
0 0 0 
1.94876 4.21572 0.35225 
0 0 0 
0 0 0 
-0.307908 5.38303 0.236177 
-1.63203 -16.5272 0.577894 
-2.12553 2.78001 -0.39761 
0 0 0 
0 0 0 
5.94033 5.05378 -1.85184 
-4.92576 3.90081 0.284942 
-3.40612 2.45407 -1.13583 
-2.04458 -0.315245 0.376705 
-3.42696 2.27201 -0.255302 
-4.47683 3.47574 -0.830411 
0 0 0 
0 0 0 
0 0 0 
0 0 0 
0 0 0 
-5.19532 -1.9499 1.15753 
2.29762 -12.7333 -0.508256 
0 0 0 
-1.32834 -12.5485 -1.22632 
0 0 0 
0 0 0 
0.567157 -3.68501 0.589688 
0 0 0 
0 0 0 
2.69994 -1.95034 -0.590729 
3.16484 6.92703 1.48042 
4.91637 -8.71425 -0.0963442 
0 0 0 
0 0 0 
-5.23183 -5.7468 1.11807 
6.66817 -11.2405 -0.376606 
4.08743 -2.42266 0.122902 
7.08817 0.164797 1.88738 
5.72261 -9.39647 0.738398 
6.69034 -8.08978 0.230477 
0 0 0 
0 0 0 
0 0 0 
0 0 0 
0 0 0 
1.93962 0.341065 -0.569504 
0 0 0 
0 0 0 
0 0 0 
0 0 0 
0 0 0 
-0.842214 1.33743 -0.166675 
0 0 0 
0 0 0 
0 0 0 
0 0 0 
0 0 0 
0 0 0 
0 0 0 
5.07581 7.80441 -0.832483 
0 0 0 
0 0 0 
0 0 0 
0 0 0 
0 0 0 
0 0 0 
0 0 0 
0 0 0 
0 0 0 
0 0 0 
-0.733583 1.03383 0.203539 
0 0 0 
0 0 0 
0 0 0 
0 0 0 
0 0 0 
0 0 0 
0 0 0 
0 0 0 
0 0 0 
0 0 0 
0 0 0 
0 0 0 
0 0 0 
0 0 0 
0 0 0 
0 0 0 
0 0 0 
0 0 0 
0 0 0 
0 0 0 
0 0 0 
0 0 0 
0 0 0 
0 0 0 
0 0 0 
VECTORS force double
-1.64336 0.258199 -4.16649 
0 0 2.76027 
-5.58318 -5.88692 -36.4439 
0 0 0.250231 
0 0 0.0148459 
-2.32392 -2.03282 -6.27407 
0 0 7.1206 
0 0 -0.0215989 
2.8061 -1.00027 -1.51878 
2.49866 -0.886457 -1.34956 
-4.89977 10.1187 -6.91831 
0 0 -0.288891 
0 0 0.426123 
4.0296 -1.77621 0.0624256 
-1.35825 -3.33423 0.426844 
-3.68818 0.10614 -0.277919 
4.03297 -2.00914 9.04608 
1.99351 2.47743 -19.6237 
-7.2429 -19.0913 -40.7767 
0 0 -0.0241285 
0 0 0.439449 
0 0 -0.0243622 
0 0 5.26762 
0 0 -0.109068 
0 0 -13.6117 
-0.293793 0.141814 -18.0889 
0 0 2.65439 
12.7367 -2.8093 11.8 
0 0 0.540442 
0 0 0.0360558 
-0.569703 -0.607839 -11.713 
0 0 10.555 
0 0 -0.0611015 
0 0 -13.6117 
0 0 -13.6117 
2.8252 33.8742 0.441628 
0 0 -0.942956 
0 0 0.78841 
0 0 -13.6117 
0 0 -13.6117 
-1.01306 0.497406 -12.5394 
2.93624 5.27373 -10.2639 
1.77533 1.24701 -19.6212 
31.2943 10.3479 40.0291 
0 0 -0.0394578 
0 0 0.812687 
0 0 -0.0399315 
0 0 12.7111 
0 0 -0.20205 
0 0 -13.6117 
0.293793 -0.141814 -9.13453 
0 0 1.5876 
9.72987 -1.74005 46.3404 
0 0 0.771746 
0 0 0.0520497 
0 0 -13.6117 
0 0 16.4608 
0 0 -0.0902297 
0 0 -13.6117 
0 0 -13.6117 
8.15471 -3.10289 19.5663 
0 0 -0.895174 
0 0 1.05558 
0 0 -13.6117 
0 0 -13.6117 
0 0 -13.6117 
-1.66103 1.42003 1.44383 
0.458039 0.187049 -11.0574 
21.5258 -16.0133 48.7891 
0 0 -0.0546108 
0 0 1.08791 
0 0 -0.0552824 
0 0 12.0971 
0 0 -0.27189 
0 0 -13.6117 
0 0 -13.6117 
0 0 1.72572 
-10.2167 -0.738601 13.8384 
0 0 0.902115 
0 0 0.0607357 
0 0 -13.6117 
0 0 12.5123 
0 0 -0.105245 
0 0 -13.6117 
0 0 -13.6117 
-13.65 -7.65509 102.698 
0 0 -0.448209 
0 0 1.19908 
0 0 -13.6117 
0 0 -13.6117 
0 0 -13.6117 
-1.33701 -1.91532 -4.30327 
0 0 -13.6117 
-7.46229 -18.7088 108.95 
0 0 -0.0644206 
0 0 1.23561 
0 0 -0.0652036 
0 0 18.779 
0 0 -0.308966 
0 0 -13.6117 
0 0 -13.6117 
0 0 -13.6117 
0 0 -13.6117 
0 0 -13.6117 
0 0 -13.6117 
0 0 -13.6117 
0 0 -13.6117 
0 0 -13.6117 
0 0 -13.6117 
0 0 -13.6117 
0 0 -13.6117 
0 0 -13.6117 
0 0 -13.6117 
0 0 -13.6117 
0 0 -13.6117 
0 0 -13.6117 
0 0 -13.6117 
0 0 -13.6117 
0 0 -13.6117 
0 0 -13.6117 
0 0 -13.6117 
0 0 -13.6117 
0 0 -13.6117 
0 0 -13.6117 
0 0 -13.6117 
0 0 -13.6117 
0 0 -13.6117 
0 0 -13.6117 
0 0 -13.6117 
0 0 -13.6117 
0 0 -13.6117 
0 0 -13.6117 
0 0 -13.6117 
0 0 -13.6117 
0 0 -13.6117 
0 0 -13.6117 
0 0 -13.6117 
0 0 -13.6117 
0 0 -13.6117 
0 0 -13.6117 
0 0 -13.6117 
0 0 -13.6117 
0 0 -13.6117 
0 0 -13.6117 
0 0 -13.6117 
0 0 -13.6117 
0 0 -13.6117 
0 0 -13.6117 
0 0 -13.6117 
0 0 -13.6117 
VECTORS moment double
0.0520331 -0.0630029 0.0107754 
0 0 0 
0.48757 -0.019338 -0.0628635 
0 0 0 
0 0 0 
0.0486951 -0.0829306 -0.00763393 
0 0 0 
0 0 0 
0.0271445 0.0664355 -0.000803477 
0.082112 0.0809227 -0.0108819 
-0.324994 0.0562369 0.243709 
0 0 0 
0 0 0 
0.0435185 0.0706093 -0.00365255 
0.0798904 -0.0305759 0.000467541 
-0.000401955 -0.00243849 -0.00554701 
-0.602476 0.165792 -0.0630387 
0.0547307 -0.0661112 0.0080207 
0.747304 -0.675281 -0.497125 
0 0 0 
0 0 0 
0 0 0 
0 0 0 
0 0 0 
0 0 0 
-0.0220853 0.0675706 0.00358951 
0 0 0 
-0.278241 0.475599 -0.0517167 
0 0 0 
0 0 0 
-0.0482262 0.0601795 0.00479528 
0 0 0 
0 0 0 
0 0 0 
0 0 0 
-0.447198 0.106853 0.272991 
0 0 0 
0 0 0 
0 0 0 
0 0 0 
0.0257711 0.0490535 0.00159293 
-0.199377 0.0145503 -0.00534595 
-0.0140216 0.012012 0.0137739 
-0.608183 1.1934 -0.0230585 
0 0 0 
0 0 0 
0 0 0 
0 0 0 
0 0 0 
0 0 0 
0.0222309 -0.0832138 -0.00409455 
0 0 0 
0.290282 -0.788119 0.0532888 
0 0 0 
0 0 0 
0 0 0 
0 0 0 
0 0 0 
0 0 0 
0 0 0 
0.824604 -0.113347 0.0260776 
0 0 0 
0 0 0 
0 0 0 
0 0 0 
0 0 0 
0.104418 -0.162001 0.00293324 
0.0392721 -0.0698136 -0.0019299 
0.885615 -0.967203 -0.258604 
0 0 0 
0 0 0 
0 0 0 
0 0 0 
0 0 0 
0 0 0 
0 0 0 
0 0 0 
-0.307812 0.361052 -0.10485 
0 0 0 
0 0 0 
0 0 0 
0 0 0 
0 0 0 
0 0 0 
0 0 0 
-0.773889 0.212853 -0.0768141 
0 0 0 
0 0 0 
0 0 0 
0 0 0 
0 0 0 
-0.0656927 0.177823 0.0271534 
0 0 0 
-1.3582 1.05524 0.0783855 
0 0 0 
0 0 0 
0 0 0 
0 0 0 
0 0 0 
0 0 0 
0 0 0 
0 0 0 
0 0 0 
0 0 0 
0 0 0 
0 0 0 
0 0 0 
0 0 0 
0 0 0 
0 0 0 
0 0 0 
0 0 0 
0 0 0 
0 0 0 
0 0 0 
0 0 0 
0 0 0 
0 0 0 
0 0 0 
0 0 0 
0 0 0 
0 0 0 
0 0 0 
0 0 0 
0 0 0 
0 0 0 
0 0 0 
0 0 0 
0 0 0 
0 0 0 
0 0 0 
0 0 0 
0 0 0 
0 0 0 
0 0 0 
0 0 0 
0 0 0 
0 0 0 
0 0 0 
0 0 0 
0 0 0 
0 0 0 
0 0 0 
0 0 0 
0 0 0 
0 0 0 
0 0 0 
0 0 0 
0 0 0 
0 0 0 
SCALARS shape_id int 1
LOOKUP_TABLE default
0
1
0
1
1
0
1
1
0
0
0
1
1
0
0
0
0
0
0
1
1
1
1
1
0
0
1
0
1
1
0
1
1
0
0
0
1
1
0
0
0
0
0
0
1
1
1
1
1
0
0
1
0
1
1
0
1
1
0
0
0
1
1
0
0
0
0
0
0
1
1
1
1
1
0
0
1
0
1
1
0
1
1
0
0
0
1
1
0
0
0
0
0
0
1
1
1
1
1
0
0
1
0
1
1
0
1
1
0
0
0
1
1
0
0
0
0
0
0
1
1
1
1
1
0
0
1
0
1
1
0
1
1
0
0
0
1
1
0
0
0
0
0
0
1
1
1
1
1
0
SCALARS size double 1
LOOKUP_TABLE default
0.1
0.1
0.1
0.1
0.1
0.1
0.1
0.1
0.1
0.1
0.1
0.1
0.1
0.1
0.1
0.1
0.1
0.1
0.1
0.1
0.1
0.1
0.1
0.1
0.1
0.1
0.1
0.1
0.1
0.1
0.1
0.1
0.1
0.1
0.1
0.1
0.1
0.1
0.1
0.1
0.1
0.1
0.1
0.1
0.1
0.1
0.1
0.1
0.1
0.1
0.1
0.1
0.1
0.1
0.1
0.1
0.1
0.1
0.1
0.1
0.1
0.1
0.1
0.1
0.1
0.1
0.1
0.1
0.1
0.1
0.1
0.1
0.1
0.1
0.1
0.1
0.1
0.1
0.1
0.1
0.1
0.1
0.1
0.1
0.1
0.1
0.1
0.1
0.1
0.1
0.1
0.1
0.1
0.1
0.1
0.1
0.1
0.1
0.1
0.1
0.1
0.1
0.1
0.1
0.1
0.1
0.1
0.1
0.1
0.1
0.1
0.1
0.1
0.1
0.1
0.1
0.1
0.1
0.1
0.1
0.1
0.1
0.1
0.1
0.1
0.1
0.1
0.1
0.1
0.1
0.1
0.1
0.1
0.1
0.1
0.1
0.1
0.1
0.1
0.1
0.1
0.1
0.1
0.1
0.1
0.1
0.1
0.1
0.1
0.1
SCALARS mass double 1
LOOKUP_TABLE default
1.38754
1.38754
1.38754
1.38754
1.38754
1.38754
1.38754
1.38754
1.38754
1.38754
1.38754
1.38754
1.38754
1.38754
1.38754
1.38754
1.38754
1.38754
1.38754
1.38754
1.38754
1.38754
1.38754
1.38754
1.38754
1.38754
1.38754
1.38754
1.38754
1.38754
1.38754
1.38754
1.38754
1.38754
1.38754
1.38754
1.38754
1.38754
1.38754
1.38754
1.38754
1.38754
1.38754
1.38754
1.38754
1.38754
1.38754
1.38754
1.38754
1.38754
1.38754
1.38754
1.38754
1.38754
1.38754
1.38754
1.38754
1.38754
1.38754
1.38754
1.38754
1.38754
1.38754
1.38754
1.38754
1.38754
1.38754
1.38754
1.38754
1.38754
1.38754
1.38754
1.38754
1.38754
1.38754
1.38754
1.38754
1.38754
1.38754
1.38754
1.38754
1.38754
1.38754
1.38754
1.38754
1.38754
1.38754
1.38754
1.38754
1.38754
1.38754
1.38754
1.38754
1.38754
1.38754
1.38754
1.38754
1.38754
1.38754
1.38754
1.38754
1.38754
1.38754
1.38754
1.38754
1.38754
1.38754
1.38754
1.38754
1.38754
1.38754
1.38754
1.38754
1.38754
1.38754
1.38754
1.38754
1.38754
1.38754
1.38754
1.38754
1.38754
1.38754
1.38754
1.38754
1.38754
1.38754
1.38754
1.38754
1.38754
1.38754
1.38754
1.38754
1.38754
1.38754
1.38754
1.38754
1.38754
1.38754
1.38754
1.38754
1.38754
1.38754
1.38754
1.38754
1.38754
1.38754
1.38754
1.38754
1.38754
VECTORS moi double
0.00116818 0.00159003 0.00189584 
0.00138754 0.00138754 0.00138754 
0.00116818 0.00159003 0.00189584 
0.00138754 0.00138754 0.00138754 
0.00138754 0.00138754 0.00138754 
0.00116818 0.00159003 0.00189584 
0.00138754 0.00138754 0.00138754 
0.00138754 0.00138754 0.00138754 
0.00116818 0.00159003 0.00189584 
0.00116818 0.00159003 0.00189584 
0.00116818 0.00159003 0.00189584 
0.00138754 0.00138754 0.00138754 
0.00138754 0.00138754 0.00138754 
0.00116818 0.00159003 0.00189584 
0.00116818 0.00159003 0.00189584 
0.00116818 0.00159003 0.00189584 
0.00116818 0.00159003 0.00189584 
0.00116818 0.00159003 0.00189584 
0.00116818 0.00159003 0.00189584 
0.00138754 0.00138754 0.00138754 
0.00138754 0.00138754 0.00138754 
0.00138754 0.00138754 0.00138754 
0.00138754 0.00138754 0.00138754 
0.00138754 0.00138754 0.00138754 
0.00116818 0.00159003 0.00189584 
0.00116818 0.00159003 0.00189584 
0.00138754 0.00138754 0.00138754 
0.00116818 0.00159003 0.00189584 
0.00138754 0.00138754 0.00138754 
0.00138754 0.00138754 0.00138754 
0.00116818 0.00159003 0.00189584 
0.00138754 0.00138754 0.00138754 
0.00138754 0.00138754 0.00138754 
0.00116818 0.00159003 0.00189584 
0.00116818 0.00159003 0.00189584 
0.00116818 0.00159003 0.00189584 
0.00138754 0.00138754 0.00138754 
0.00138754 0.00138754 0.00138754 
0.00116818 0.00159003 0.00189584 
0.00116818 0.00159003 0.00189584 
0.00116818 0.00159003 0.00189584 
0.00116818 0.00159003 0.00189584 
0.00116818 0.00159003 0.00189584 
0.00116818 0.00159003 0.00189584 
0.00138754 0.00138754 0.00138754 
0.00138754 0.00138754 0.00138754 
0.00138754 0.00138754 0.00138754 
0.00138754 0.00138754 0.00138754 
0.00138754 0.00138754 0.00138754 
0.00116818 0.00159003 0.00189584 
0.00116818 0.00159003 0.00189584 
0.00138754 0.00138754 0.00138754 
0.00116818 0.00159003 0.00189584 
0.00138754 0.00138754 0.00138754 
0.00138754 0.00138754 0.00138754 
0.00116818 0.00159003 0.00189584 
0.00138754 0.00138754 0.00138754 
0.00138754 0.00138754 0.00138754 
0.00116818 0.00159003 0.00189584 
0.00116818 0.00159003 0.00189584 
0.00116818 0.00159003 0.00189584 
0.00138754 0.00138754 0.00138754 
0.00138754 0.00138754 0.00138754 
0.00116818 0.00159003 0.00189584 
0.00116818 0.00159003 0.00189584 
0.00116818 0.00159003 0.00189584 
0.00116818 0.00159003 0.00189584 
0.00116818 0.00159003 0.00189584 
0.00116818 0.00159003 0.00189584 
0.00138754 0.00138754 0.00138754 
0.00138754 0.00138754 0.00138754 
0.00138754 0.00138754 0.00138754 
0.00138754 0.00138754 0.00138754 
0.00138754 0.00138754 0.00138754 
0.00116818 0.00159003 0.00189584 
0.00116818 0.00159003 0.00189584 
0.00138754 0.00138754 0.00138754 
0.00116818 0.00159003 0.00189584 
0.00138754 0.00138754 0.00138754 
0.00138754 0.00138754 0.00138754 
0.00116818 0.00159003 0.00189584 
0.00138754 0.00138754 0.00138754 
0.00138754 0.00138754 0.00138754 
0.00116818 0.00159003 0.00189584 
0.00116818 0.00159003 0.00189584 
0.00116818 0.00159003 0.00189584 
0.00138754 0.00138754 0.00138754 
0.00138754 0.00138754 0.00138754 
0.00116818 0.00159003 0.00189584 
0.00116818 0.00159003 0.00189584 
0.00116818 0.00159003 0.00189584 
0.00116818 0.00159003 0.00189584 
0.00116818 0.00159003 0.00189584 
0.00116818 0.00159003 0.00189584 
0.00138754 0.00138754 0.00138754 
0.00138754 0.00138754 0.00138754 
0.00138754 0.00138754 0.00138754 
0.00138754 0.00138754 0.00138754 
0.00138754 0.00138754 0.00138754 
0.00116818 0.00159003 0.00189584 
0.00116818 0.00159003 0.00189584 
0.00138754 0.00138754 0.00138754 
0.00116818 0.00159003 0.00189584 
0.00138754 0.00138754 0.00138754 
0.00138754 0.00138754 0.00138754 
0.00116818 0.00159003 0.00189584 
0.00138754 0.00138754 0.00138754 
0.00138754 0.00138754 0.00138754 
0.00116818 0.00159003 0.00189584 
0.00116818 0.00159003 0.00189584 
0.00116818 0.00159003 0.00189584 
0.00138754 0.00138754 0.00138754 
0.00138754 0.00138754 0.00138754 
0.00116818 0.00159003 0.00189584 
0.00116818 0.00159003 0.00189584 
0.00116818 0.00159003 0.00189584 
0.00116818 0.00159003 0.00189584 
0.00116818 0.00159003 0.00189584 
0.00116818 0.00159003 0.00189584 
0.00138754 0.00138754 0.00138754 
0.00138754 0.00138754 0.00138754 
0.00138754 0.00138754 0.00138754 
0.00138754 0.00138754 0.00138754 
0.00138754 0.00138754 0.00138754 
0.00116818 0.00159003 0.00189584 
0.00116818 0.00159003 0.00189584 
0.00138754 0.00138754 0.00138754 
0.00116818 0.00159003 0.00189584 
0.00138754 0.00138754 0.00138754 
0.00138754 0.00138754 0.00138754 
0.00116818 0.00159003 0.00189584 
0.00138754 0.00138754 0.00138754 
0.00138754 0.00138754 0.00138754 
0.00116818 0.00159003 0.00189584 
0.00116818 0.00159003 0.00189584 
0.00116818 0.00159003 0.00189584 
0.00138754 0.00138754 0.00138754 
0.00138754 0.00138754 0.00138754 
0.00116818 0.00159003 0.00189584 
0.00116818 0.00159003 0.00189584 
0.00116818 0.00159003 0.00189584 
0.00116818 0.00159003 0.00189584 
0.00116818 0.00159003 0.00189584 
0.00116818 0.00159003 0.00189584 