# vtk DataFile Version 2.0
Generated by NetDEM
ASCII 
DATASET POLYDATA
POINTS 500 double
-0.419015 -0.408333 -0.464083 
-0.449878 -0.19398 -0.450025 
-0.406475 -0.0117031 -0.461144 
-0.45002 0.109423 -0.450014 
-0.438432 0.349849 -0.449843 
-0.271144 -0.429757 -0.459104 
-0.304112 -0.221285 -0.45007 
-0.190785 -0.0111286 -0.450069 
-0.172584 0.173158 -0.463883 
-0.254929 0.366699 -0.463521 
-0.0554185 -0.396701 -0.461058 
-0.146609 -0.134356 -0.450009 
-0.054954 -0.0937356 -0.450018 
0.0383238 0.180381 -0.452888 
-0.0295364 0.318701 -0.44242 
0.193335 -0.400865 -0.462976 
0.169661 -0.210013 -0.46328 
0.172572 -0.00477468 -0.462764 
0.161445 0.207225 -0.465047 
0.297617 0.403333 -0.41884 
0.449999 -0.410213 -0.45005 
0.43277 -0.299348 -0.450007 
0.339187 -0.0118831 -0.450012 
0.377056 0.0880149 -0.450023 
0.37211 0.439657 -0.465013 
-0.431062 -0.411142 -0.394014 
-0.450001 -0.271312 -0.386638 
-0.408064 -0.0173171 -0.388253 
-0.445263 0.175992 -0.375248 
-0.450023 0.449162 -0.450051 
-0.336802 -0.406687 -0.407662 
-0.241431 -0.149164 -0.420058 
-0.157111 -0.100569 -0.212153 
-0.304591 0.164559 -0.465041 
-0.150807 0.404692 -0.451891 
-0.0882921 -0.390887 -0.396499 
0.309954 -0.24665 -0.134031 
-0.0423001 -0.0164558 -0.309548 
0.0290291 0.259709 -0.45074 
0.122585 0.302033 -0.430857 
0.202344 -0.413121 -0.390283 
0.166917 -0.206096 -0.390227 
0.175199 0.0166618 -0.386154 
0.197239 0.113109 -0.455686 
0.285919 0.368769 -0.325745 
0.381932 -0.450009 -0.388567 
0.435792 -0.355773 -0.367417 
0.276105 -0.210975 -0.450022 
0.450007 0.141209 -0.407067 
0.425404 0.341272 -0.456367 
-0.435935 -0.440919 -0.326033 
-0.320712 -0.209762 -0.352209 
-0.311873 -0.0189191 -0.371037 
-0.289163 0.270842 -0.450015 
-0.450022 0.275761 -0.383764 
-0.181091 -0.373041 -0.451942 
0.183199 -0.335971 -0.300874 
-0.238983 -0.0554682 -0.176599 
-0.174513 0.0776361 -0.450473 
-0.350853 0.331419 -0.337396 
0.0437416 -0.439017 -0.449876 
0.206257 -0.284737 -0.158512 
0.205296 0.0619133 -0.208002 
-0.0400629 0.221955 -0.393432 
0.255156 0.33117 -0.463873 
0.195946 -0.434489 -0.319222 
0.0524109 -0.0969572 -0.450652 
0.161311 0.0614361 -0.331869 
0.271374 0.0649136 -0.442363 
0.112917 0.138545 -0.397462 
0.295789 -0.447476 -0.450007 
0.377513 -0.215976 -0.450056 
0.379248 -0.109892 -0.450043 
0.449964 0.231947 -0.365081 
0.437686 0.256722 -0.459932 
-0.433711 -0.452869 -0.243596 
-0.176181 -0.162277 -0.345421 
-0.237995 -0.00404752 -0.353167 
-0.269119 0.0891917 -0.404938 
-0.354109 0.143085 -0.350314 
-0.161909 -0.448968 -0.394694 
-0.125888 -0.0573522 -0.389668 
-0.2396 0.0478976 -0.225715 
-0.0549387 0.128416 -0.445052 
-0.355567 0.380935 -0.407494 
0.0911534 -0.451374 -0.355822 
0.448816 -0.333973 -0.0812155 
-0.188314 -0.239212 -0.450012 
0.0171817 0.0473611 -0.450247 
0.0672496 0.398178 -0.410575 
0.260281 -0.445982 -0.245014 
0.152282 -0.317949 -0.398866 
0.120664 0.068136 -0.270832 
0.264829 0.174636 -0.442874 
0.143426 0.450002 -0.450017 
0.347264 -0.309455 -0.363509 
0.450017 -0.106044 -0.379543 
0.387941 0.160167 -0.330626 
0.331152 0.309363 -0.412192 
0.436835 0.372098 -0.377276 
-0.386666 -0.439595 -0.170012 
-0.36782 -0.360301 -0.120516 
-0.294768 -0.039848 -0.275953 
-0.366264 0.0676786 -0.414844 
-0.447458 0.427431 -0.352448 
-0.269491 -0.439522 -0.363014 
-0.0635838 -0.15989 -0.375535 
-0.249107 0.039435 -0.126546 
-0.00325461 -0.0241463 -0.397129 
-0.423335 0.242356 -0.463927 
0.082456 -0.342534 -0.440686 
0.35502 -0.212144 -0.0516991 
0.0368743 -0.119578 -0.351777 
0.0270903 0.0422898 -0.355046 
-0.00309051 0.436356 -0.464321 
0.302045 -0.385575 -0.217427 
0.260019 -0.314691 -0.423958 
0.0384032 0.0686459 -0.261258 
0.247315 0.24218 -0.380264 
0.348628 0.450032 -0.271378 
0.325442 -0.404483 -0.319754 
0.450051 -0.209642 -0.381576 
0.45 -0.0304302 -0.450007 
0.340893 0.210243 -0.403281 
0.397809 0.453282 -0.373859 
-0.462166 -0.452506 -0.127319 
-0.320572 -0.139198 -0.281398 
-0.451428 -0.0302562 -0.320933 
-0.25279 0.190281 -0.394185 
-0.3053 0.449614 -0.36153 
-0.164825 -0.374144 -0.33977 
-0.0851868 -0.223002 -0.450023 
-0.194779 -0.161923 -0.142763 
-0.134283 0.148545 -0.397134 
-0.228351 0.333686 -0.394229 
-0.0916071 -0.310732 -0.451267 
0.286929 -0.320086 -0.0701826 
0.449991 0.0524186 -0.161026 
0.0443892 0.120776 -0.331342 
-0.115391 0.312947 -0.40715 
0.160734 -0.434161 -0.23524 
0.239531 -0.140424 -0.393763 
0.109934 -0.0228118 -0.221722 
0.195748 0.307348 -0.3391 
0.200879 0.385698 -0.397239 
0.44999 -0.440318 -0.315947 
0.334486 -0.173091 -0.370631 
0.250594 -0.0605112 -0.450025 
0.448855 0.0508049 -0.364341 
0.44086 0.408531 -0.299904 
-0.43829 -0.457702 -0.0122846 
-0.22768 -0.171316 -0.260179 
-0.423478 -0.112502 -0.406338 
-0.207075 0.271521 -0.333257 
-0.336769 0.240021 -0.367663 
-0.140355 -0.289552 -0.369868 
0.129717 -0.450019 -0.0935236 
-0.305511 0.364884 -0.183083 
-0.105727 0.275172 -0.326889 
-0.224103 0.456423 -0.441454 
-0.00123471 -0.339362 -0.36136 
0.116926 -0.24037 -0.151366 
-0.177697 -0.0699499 -0.305085 
0.0179922 0.200958 -0.302298 
0.010966 0.294144 -0.349248 
0.0753307 -0.411493 -0.274271 
0.136348 -0.0971636 -0.399108 
0.256832 -0.11749 -0.265291 
0.232492 0.184923 -0.324871 
0.139218 0.448759 -0.350121 
0.387095 -0.228974 -0.306399 
0.344065 -0.0671083 -0.366788 
0.32075 0.0565478 -0.371917 
0.402833 0.302412 -0.310759 
0.446763 0.37772 -0.213813 
-0.327232 -0.448442 -0.0829954 
-0.448995 -0.0992057 -0.265313 
-0.358227 0.0109407 -0.244111 
-0.450002 0.0686231 -0.356038 
-0.417681 0.261819 -0.29021 
-0.266858 -0.309703 -0.446403 
-0.180388 -0.276317 -0.24625 
-0.142946 0.400511 -0.0775694 
-0.125502 0.189606 -0.33397 
-0.13991 0.441915 -0.351552 
0.00506242 -0.43484 -0.356099 
0.0157735 -0.0959614 -0.256937 
0.0156894 -0.224607 -0.450007 
-0.0263263 0.270677 -0.247594 
-0.00590629 0.410888 -0.369984 
0.0737968 -0.426246 -0.1726 
0.0980917 -0.0408055 -0.331362 
0.286704 -0.160951 -0.188185 
0.203006 0.136541 -0.269143 
0.249028 0.450002 -0.280598 
0.449886 -0.309275 -0.280038 
0.450006 -0.148812 -0.289184 
0.364855 0.0394643 -0.283873 
0.317842 0.249796 -0.308191 
0.382737 0.427361 -0.195503 
-0.245879 -0.443885 -0.160138 
-0.442625 0.230152 -0.198739 
-0.292973 0.189082 -0.18484 
-0.189402 0.076431 -0.342477 
-0.373826 0.450006 -0.288695 
-0.227086 -0.349203 -0.242884 
-0.0437252 -0.260845 -0.308892 
0.0159217 -0.242823 -0.230682 
-0.157603 0.116548 -0.254202 
-0.167275 0.350542 -0.328469 
-0.0440696 -0.38569 -0.291405 
-0.185454 -0.0948914 0.186672 
-0.0278222 0.205258 -0.16685 
-0.0546157 0.111143 -0.318733 
0.103455 0.358055 -0.330406 
0.265004 -0.435496 -0.136209 
0.219281 -0.196472 -0.311166 
0.293112 -0.106651 -0.121958 
0.150793 0.227037 -0.289428 
0.198182 0.359295 -0.256344 
0.409328 -0.391242 -0.238893 
0.445628 -0.225651 -0.225392 
0.434847 -0.0334926 -0.312406 
0.303563 0.11808 -0.29184 
0.407476 0.403879 -0.122799 
-0.254392 -0.332745 -0.15135 
-0.416682 -0.334752 -0.316894 
-0.430449 0.333117 -0.134286 
-0.342023 0.324021 -0.0634385 
-0.449006 0.425438 -0.00859188 
-0.140934 -0.417613 -0.253345 
-0.0521383 0.136664 -0.064585 
-0.259665 -0.176033 -0.0239568 
-0.183147 0.175916 -0.183973 
-0.158944 0.338296 -0.220396 
-0.0625251 -0.384279 -0.205486 
-0.138351 -0.141357 -0.015186 
-0.111694 -0.0244489 -0.165872 
-0.00476182 0.110184 -0.195597 
0.0253415 0.446815 -0.277671 
0.298114 -0.328323 -0.171119 
0.248154 -0.292669 -0.341746 
0.349967 -0.0521789 -0.0705463 
0.154031 0.273193 -0.21909 
0.208189 0.405742 -0.135089 
0.358333 -0.450015 -0.17105 
0.449841 -0.1997 -0.0808632 
0.33638 0.130121 -0.0034966 
0.45 0.152642 -0.174541 
0.425677 0.387457 -0.0422986 
-0.297694 -0.320412 -0.347268 
-0.118259 -0.203415 -0.275043 
-0.3255 -0.0183366 -0.14538 
-0.220064 0.203668 -0.260995 
-0.422386 0.444676 -0.20146 
-0.249434 -0.429747 -0.269985 
0.0954822 -0.280938 -0.305929 
-0.30857 0.256659 -0.12933 
-0.247524 0.300639 -0.207664 
-0.150116 0.442148 -0.24142 
0.0156843 -0.380889 -0.162085 
0.450015 -0.389721 0.00178234 
0.0766893 0.4368 -0.187134 
-0.0747181 0.40653 -0.32153 
-0.0385423 0.447831 -0.21747 
0.354662 -0.395948 -0.0892359 
0.372353 -0.0987384 -0.169772 
0.193989 -0.0256818 -0.289018 
0.220612 0.199701 -0.199885 
0.0885773 0.238906 -0.366977 
0.355909 -0.302654 -0.246464 
0.350411 -0.1503 -0.256791 
0.450067 0.0836458 -0.255994 
0.449099 0.215483 -0.266473 
0.40772 0.450971 -0.0142378 
-0.337061 -0.393435 0.0160368 
-0.138791 -0.345435 -0.144295 
-0.43405 -0.111852 -0.181202 
-0.450015 0.0947602 -0.1723 
-0.345953 0.196467 -0.266145 
-0.145279 -0.443493 -0.168822 
-0.0642175 -0.288257 -0.178702 
-0.228811 0.449988 -0.297113 
-0.282981 0.310525 -0.281682 
-0.21814 0.435366 -0.16791 
0.0407889 -0.406623 -0.0767532 
-0.115407 0.450003 0.123923 
0.0328081 0.182536 -0.0906513 
-0.0716795 0.307015 -0.195282 
0.00595897 0.367279 -0.184973 
0.270888 -0.416621 -0.0260466 
0.0283948 -0.0916402 -0.00749362 
0.145653 -0.0383146 -0.136895 
0.288118 0.173334 -0.143007 
0.0689263 0.255407 -0.153287 
0.404098 -0.281817 -0.15386 
0.450008 -0.145959 -0.165165 
0.330496 -0.0527461 -0.266116 
0.450006 0.27759 -0.18812 
0.301623 0.414649 -0.079406 
-0.290619 -0.353765 -0.0601728 
-0.419305 0.000204482 -0.182939 
-0.393901 -0.295426 -0.0666064 
-0.431057 0.136052 -0.284669 
-0.450019 0.450002 -0.105506 
-0.157369 -0.426596 -0.0687691 
-0.135768 -0.319374 -0.0478044 
-0.281199 0.0911824 -0.305673 
-0.135127 0.279215 -0.104755 
-0.250142 0.381312 -0.0959875 
-0.022096 -0.425885 -0.0143425 
-0.407245 -0.173502 -0.317609 
0.0104039 -0.00289821 -0.220627 
-0.0434283 0.290557 -0.0885708 
-0.00866731 0.443697 -0.128572 
0.151788 -0.38968 -0.0138539 
0.451407 0.00316255 0.0170967 
0.0756027 -0.02826 -0.0702942 
0.303457 0.336672 -0.206214 
0.282074 0.449612 -0.186225 
0.372938 -0.450005 -0.0187803 
0.438871 -0.0461559 0.0929435 
0.246056 -0.0563162 -0.350249 
0.347737 0.253492 -0.190544 
0.439263 0.452471 0.0747579 
-0.349691 -0.214784 -5.01287e-05 
-0.388909 -0.272397 -0.163337 
-0.417458 0.101587 -0.0912359 
-0.388197 0.316385 -0.211575 
-0.44993 0.363646 -0.27539 
-0.173787 -0.434526 0.0511028 
-0.0583285 -0.149256 -0.216089 
-0.225028 0.291115 -0.0865129 
-0.101646 0.386313 -0.164043 
-0.0740981 0.440217 -0.0458906 
-0.0918676 -0.447761 0.0292204 
0.0802664 -0.166344 -0.227164 
-0.0692452 0.0658847 -0.133121 
0.0339739 0.249292 -0.0303479 
0.00812478 0.423348 -0.0558155 
0.137127 -0.33814 -0.103348 
0.17846 -0.189693 -0.225756 
0.126392 0.150543 -0.183302 
0.312984 0.220972 -0.0585384 
0.170796 0.450001 -0.218288 
0.449998 -0.416566 -0.149181 
0.319934 -0.266879 0.0242599 
0.411198 -0.0216329 -0.215926 
0.369499 0.165362 -0.232485 
0.418427 0.272883 0.175818 
-0.420583 -0.381197 0.0595191 
-0.450004 -0.216332 -0.238008 
-0.365278 0.218533 -0.0767947 
-0.44775 0.062821 2.62448e-05 
-0.450011 0.194235 -0.105725 
-0.226389 -0.379708 0.0015848 
-0.277626 -0.110236 -0.0970579 
-0.323041 -0.108773 -0.186103 
-0.191477 0.356502 0.00362708 
-0.132835 0.400111 0.0288395 
0.040291 -0.187219 -0.126046 
-0.150456 -0.248887 -0.121045 
0.220239 0.134614 -0.0803882 
0.105663 0.318229 -0.0352983 
-0.0207819 0.439502 0.0353162 
0.0781683 -0.215496 -0.0176455 
0.454543 -0.0713384 -0.107776 
0.281714 0.0625682 -0.021291 
0.190081 0.224547 -0.111063 
0.103605 0.336333 0.0830961 
0.398907 -0.0789512 0.0073 
0.449136 -0.267092 -0.00687398 
0.365602 0.0105915 -0.127521 
0.426534 0.111686 -0.0840223 
0.32682 0.31781 -0.109609 
-0.427662 -0.18021 -0.130871 
-0.450004 -0.239815 -0.0304432 
-0.39694 -0.00600332 -0.0883698 
-0.449993 0.282761 0.0585913 
-0.342392 0.448185 -0.141567 
-0.238931 -0.30367 0.0660315 
-0.274054 -0.274619 -0.015467 
-0.326231 0.0630843 -0.0469779 
-0.119133 0.218748 -0.0401519 
-0.126717 0.193722 0.0375044 
0.0270124 -0.311937 -0.0111404 
-0.120926 -0.104847 -0.106882 
0.111003 0.113284 -0.0909083 
-0.156039 0.104829 -0.123493 
0.0417333 0.409086 0.116075 
0.039704 -0.291492 -0.141064 
0.284924 -0.0738891 -0.0113899 
0.267426 0.0238466 -0.0943056 
0.18521 0.281469 -0.031314 
0.148684 0.326603 -0.149058 
0.328084 -0.342226 0.0894997 
0.257542 -0.178527 -0.0687129 
0.416591 0.187599 -0.0196992 
0.409073 0.235716 -0.107069 
0.437336 0.27708 0.00545411 
-0.336544 -0.345831 0.098558 
-0.338733 -0.226867 -0.236889 
-0.448006 -0.0604772 -0.0182197 
-0.449994 0.131629 0.0731901 
-0.279934 0.366665 0.00232098 
-0.0627778 -0.181216 -0.130198 
-0.177742 -0.233184 -0.0193509 
-0.234351 0.00109865 -0.0353888 
-0.285954 0.218259 -0.00664163 
-0.204632 0.411893 0.094532 
0.209496 -0.0595524 -0.095056 
0.00128155 -0.081185 -0.159103 
-0.135819 -0.0328582 0.12588 
-0.0234279 0.243826 0.0458311 
-0.0713961 0.349392 0.0811031 
0.314706 -0.441592 0.0749968 
0.329049 -0.210556 0.109126 
0.177568 0.0392962 -0.123452 
0.263686 0.288035 0.0145422 
0.240025 0.45 -0.00644738 
0.44826 -0.165738 0.0131722 
0.315652 0.362358 0.00042014 
0.449997 0.0882348 0.0103029 
0.432154 0.161741 0.0757095 
0.384695 0.367005 0.0695875 
-0.402298 -0.395016 0.146151 
-0.432842 -0.264508 0.0649207 
-0.195942 -0.0717579 -0.0700059 
-0.444531 0.269773 -0.0404344 
-0.388064 0.351974 0.0212376 
-0.210287 -0.392836 0.103204 
-0.249819 -0.00261625 0.123368 
-0.0422745 -0.0137713 -0.078978 
-0.276985 0.135862 -0.0992361 
-0.28547 0.399172 0.164622 
0.188069 -0.430984 0.0656876 
0.119074 -0.134045 -0.127808 
0.0320881 0.0526473 -0.11535 
-0.0887936 0.108184 0.0752119 
-0.0413812 0.410371 0.163407 
0.308569 -0.414367 0.169901 
0.205379 -0.11621 0.000678445 
0.0969831 0.191692 0.0108633 
0.269212 0.170039 0.153552 
0.155876 0.417654 -0.0507126 
0.413789 -0.45 0.072868 
0.332031 -0.16135 0.0314114 
-0.215711 0.131573 0.0195152 
0.364654 0.208238 0.132991 
0.31776 0.449914 0.0660555 
-0.441801 -0.450593 0.180092 
-0.276409 0.0510447 0.0403411 
-0.395242 0.00102402 0.0434174 
-0.418672 0.15674 -0.0184015 
-0.450005 0.41746 0.0910704 
-0.29625 -0.448964 0.0729869 
-0.237791 -0.153656 0.0710048 
-0.173144 0.0323689 0.0372378 
-0.340406 0.124829 0.0454497 
-0.432246 0.405034 0.193953 
0.238343 -0.251452 0.123647 
-0.0459082 -0.145035 -0.0531217 
-0.0898894 0.0622809 -0.00946774 
0.0228754 0.332337 0.027058 
0.0128495 0.31289 0.123519 
0.192904 -0.247855 -0.0693799 
0.213932 -0.296179 0.0335069 
0.192869 -0.0140319 -0.0184743 
0.192219 0.17047 0.0116228 
0.079795 0.425683 0.0136791 
0.42633 -0.355383 0.102692 
0.449953 -0.150035 0.111913 
0.347001 0.00733567 0.0259886 
0.273195 0.166464 0.0649519 
0.450734 0.353811 0.122919 
-0.312309 -0.310596 0.161864 
-0.202209 -0.0613272 0.0565941 
-0.439083 -0.00775634 0.148678 
-0.371118 0.221256 0.0470946 
-0.36268 0.449345 0.127898 
-0.178004 -0.243014 0.0804197 
-0.20237 -0.18905 0.157558 
-0.0874106 -0.0253295 0.0386794 
-0.311989 0.311183 0.077317 
-0.219649 0.237845 0.0668052 
-0.0479501 -0.115973 0.0445938 
-0.0154069 -0.253028 -0.070028 
0.0184468 0.00242319 -0.00118549 
0.235925 -0.155537 0.078254 
0.0128503 0.448462 0.225372 
0.210348 -0.380316 0.14795 
0.444609 -0.298039 0.171308 
0.308985 0.0624777 0.104382 
0.177818 0.247539 0.0703212 
0.183256 0.366238 0.0305704 
0.405725 -0.407382 0.185584 
0.449102 -0.203035 0.196708 
0.324972 -0.0726798 0.0819739 
0.40022 0.0920693 0.139938 
0.231202 0.424485 0.104152 
VERTICES 500 1000
1 0
1 1
1 2
1 3
1 4
1 5
1 6
1 7
1 8
1 9
1 10
1 11
1 12
1 13
1 14
1 15
1 16
1 17
1 18
1 19
1 20
1 21
1 22
1 23
1 24
1 25
1 26
1 27
1 28
1 29
1 30
1 31
1 32
1 33
1 34
1 35
1 36
1 37
1 38
1 39
1 40
1 41
1 42
1 43
1 44
1 45
1 46
1 47
1 48
1 49
1 50
1 51
1 52
1 53
1 54
1 55
1 56
1 57
1 58
1 59
1 60
1 61
1 62
1 63
1 64
1 65
1 66
1 67
1 68
1 69
1 70
1 71
1 72
1 73
1 74
1 75
1 76
1 77
1 78
1 79
1 80
1 81
1 82
1 83
1 84
1 85
1 86
1 87
1 88
1 89
1 90
1 91
1 92
1 93
1 94
1 95
1 96
1 97
1 98
1 99
1 100
1 101
1 102
1 103
1 104
1 105
1 106
1 107
1 108
1 109
1 110
1 111
1 112
1 113
1 114
1 115
1 116
1 117
1 118
1 119
1 120
1 121
1 122
1 123
1 124
1 125
1 126
1 127
1 128
1 129
1 130
1 131
1 132
1 133
1 134
1 135
1 136
1 137
1 138
1 139
1 140
1 141
1 142
1 143
1 144
1 145
1 146
1 147
1 148
1 149
1 150
1 151
1 152
1 153
1 154
1 155
1 156
1 157
1 158
1 159
1 160
1 161
1 162
1 163
1 164
1 165
1 166
1 167
1 168
1 169
1 170
1 171
1 172
1 173
1 174
1 175
1 176
1 177
1 178
1 179
1 180
1 181
1 182
1 183
1 184
1 185
1 186
1 187
1 188
1 189
1 190
1 191
1 192
1 193
1 194
1 195
1 196
1 197
1 198
1 199
1 200
1 201
1 202
1 203
1 204
1 205
1 206
1 207
1 208
1 209
1 210
1 211
1 212
1 213
1 214
1 215
1 216
1 217
1 218
1 219
1 220
1 221
1 222
1 223
1 224
1 225
1 226
1 227
1 228
1 229
1 230
1 231
1 232
1 233
1 234
1 235
1 236
1 237
1 238
1 239
1 240
1 241
1 242
1 243
1 244
1 245
1 246
1 247
1 248
1 249
1 250
1 251
1 252
1 253
1 254
1 255
1 256
1 257
1 258
1 259
1 260
1 261
1 262
1 263
1 264
1 265
1 266
1 267
1 268
1 269
1 270
1 271
1 272
1 273
1 274
1 275
1 276
1 277
1 278
1 279
1 280
1 281
1 282
1 283
1 284
1 285
1 286
1 287
1 288
1 289
1 290
1 291
1 292
1 293
1 294
1 295
1 296
1 297
1 298
1 299
1 300
1 301
1 302
1 303
1 304
1 305
1 306
1 307
1 308
1 309
1 310
1 311
1 312
1 313
1 314
1 315
1 316
1 317
1 318
1 319
1 320
1 321
1 322
1 323
1 324
1 325
1 326
1 327
1 328
1 329
1 330
1 331
1 332
1 333
1 334
1 335
1 336
1 337
1 338
1 339
1 340
1 341
1 342
1 343
1 344
1 345
1 346
1 347
1 348
1 349
1 350
1 351
1 352
1 353
1 354
1 355
1 356
1 357
1 358
1 359
1 360
1 361
1 362
1 363
1 364
1 365
1 366
1 367
1 368
1 369
1 370
1 371
1 372
1 373
1 374
1 375
1 376
1 377
1 378
1 379
1 380
1 381
1 382
1 383
1 384
1 385
1 386
1 387
1 388
1 389
1 390
1 391
1 392
1 393
1 394
1 395
1 396
1 397
1 398
1 399
1 400
1 401
1 402
1 403
1 404
1 405
1 406
1 407
1 408
1 409
1 410
1 411
1 412
1 413
1 414
1 415
1 416
1 417
1 418
1 419
1 420
1 421
1 422
1 423
1 424
1 425
1 426
1 427
1 428
1 429
1 430
1 431
1 432
1 433
1 434
1 435
1 436
1 437
1 438
1 439
1 440
1 441
1 442
1 443
1 444
1 445
1 446
1 447
1 448
1 449
1 450
1 451
1 452
1 453
1 454
1 455
1 456
1 457
1 458
1 459
1 460
1 461
1 462
1 463
1 464
1 465
1 466
1 467
1 468
1 469
1 470
1 471
1 472
1 473
1 474
1 475
1 476
1 477
1 478
1 479
1 480
1 481
1 482
1 483
1 484
1 485
1 486
1 487
1 488
1 489
1 490
1 491
1 492
1 493
1 494
1 495
1 496
1 497
1 498
1 499
POINT_DATA 500
SCALARS id int 1
LOOKUP_TABLE default
0
1
2
3
4
5
6
7
8
9
10
11
12
13
14
15
16
17
18
19
20
21
22
23
24
25
26
27
28
29
30
31
32
33
34
35
36
37
38
39
40
41
42
43
44
45
46
47
48
49
50
51
52
53
54
55
56
57
58
59
60
61
62
63
64
65
66
67
68
69
70
71
72
73
74
75
76
77
78
79
80
81
82
83
84
85
86
87
88
89
90
91
92
93
94
95
96
97
98
99
100
101
102
103
104
105
106
107
108
109
110
111
112
113
114
115
116
117
118
119
120
121
122
123
124
125
126
127
128
129
130
131
132
133
134
135
136
137
138
139
140
141
142
143
144
145
146
147
148
149
150
151
152
153
154
155
156
157
158
159
160
161
162
163
164
165
166
167
168
169
170
171
172
173
174
175
176
177
178
179
180
181
182
183
184
185
186
187
188
189
190
191
192
193
194
195
196
197
198
199
200
201
202
203
204
205
206
207
208
209
210
211
212
213
214
215
216
217
218
219
220
221
222
223
224
225
226
227
228
229
230
231
232
233
234
235
236
237
238
239
240
241
242
243
244
245
246
247
248
249
250
251
252
253
254
255
256
257
258
259
260
261
262
263
264
265
266
267
268
269
270
271
272
273
274
275
276
277
278
279
280
281
282
283
284
285
286
287
288
289
290
291
292
293
294
295
296
297
298
299
300
301
302
303
304
305
306
307
308
309
310
311
312
313
314
315
316
317
318
319
320
321
322
323
324
325
326
327
328
329
330
331
332
333
334
335
336
337
338
339
340
341
342
343
344
345
346
347
348
349
350
351
352
353
354
355
356
357
358
359
360
361
362
363
364
365
366
367
368
369
370
371
372
373
374
375
376
377
378
379
380
381
382
383
384
385
386
387
388
389
390
391
392
393
394
395
396
397
398
399
400
401
402
403
404
405
406
407
408
409
410
411
412
413
414
415
416
417
418
419
420
421
422
423
424
425
426
427
428
429
430
431
432
433
434
435
436
437
438
439
440
441
442
443
444
445
446
447
448
449
450
451
452
453
454
455
456
457
458
459
460
461
462
463
464
465
466
467
468
469
470
471
472
473
474
475
476
477
478
479
480
481
482
483
484
485
486
487
488
489
490
491
492
493
494
495
496
497
498
499
SCALARS type int 1
LOOKUP_TABLE default
0
0
0
0
0
0
0
0
0
0
0
0
0
0
0
0
0
0
0
0
0
0
0
0
0
0
0
0
0
0
0
0
0
0
0
0
0
0
0
0
0
0
0
0
0
0
0
0
0
0
0
0
0
0
0
0
0
0
0
0
0
0
0
0
0
0
0
0
0
0
0
0
0
0
0
0
0
0
0
0
0
0
0
0
0
0
0
0
0
0
0
0
0
0
0
0
0
0
0
0
0
0
0
0
0
0
0
0
0
0
0
0
0
0
0
0
0
0
0
0
0
0
0
0
0
0
0
0
0
0
0
0
0
0
0
0
0
0
0
0
0
0
0
0
0
0
0
0
0
0
0
0
0
0
0
0
0
0
0
0
0
0
0
0
0
0
0
0
0
0
0
0
0
0
0
0
0
0
0
0
0
0
0
0
0
0
0
0
0
0
0
0
0
0
0
0
0
0
0
0
0
0
0
0
0
0
0
0
0
0
0
0
0
0
0
0
0
0
0
0
0
0
0
0
0
0
0
0
0
0
0
0
0
0
0
0
0
0
0
0
0
0
0
0
0
0
0
0
0
0
0
0
0
0
0
0
0
0
0
0
0
0
0
0
0
0
0
0
0
0
0
0
0
0
0
0
0
0
0
0
0
0
0
0
0
0
0
0
0
0
0
0
0
0
0
0
0
0
0
0
0
0
0
0
0
0
0
0
0
0
0
0
0
0
0
0
0
0
0
0
0
0
0
0
0
0
0
0
0
0
0
0
0
0
0
0
0
0
0
0
0
0
0
0
0
0
0
0
0
0
0
0
0
0
0
0
0
0
0
0
0
0
0
0
0
0
0
0
0
0
0
0
0
0
0
0
0
0
0
0
0
0
0
0
0
0
0
0
0
0
0
0
0
0
0
0
0
0
0
0
0
0
0
0
0
0
0
0
0
0
0
0
0
0
0
0
0
0
0
0
0
0
0
0
0
0
0
0
0
0
0
0
0
0
0
0
0
0
0
0
0
0
0
0
0
0
0
0
0
0
0
0
0
0
0
0
0
0
0
0
0
0
0
0
0
0
0
0
0
0
0
0
0
0
0
0
0
0
0
0
0
0
0
0
0
0
0
0
0
0
0
0
0
0
0
0
0
0
0
0
SCALARS damp_viscous double 1
LOOKUP_TABLE default
0
0
0
0
0
0
0
0
0
0
0
0
0
0
0
0
0
0
0
0
0
0
0
0
0
0
0
0
0
0
0
0
0
0
0
0
0
0
0
0
0
0
0
0
0
0
0
0
0
0
0
0
0
0
0
0
0
0
0
0
0
0
0
0
0
0
0
0
0
0
0
0
0
0
0
0
0
0
0
0
0
0
0
0
0
0
0
0
0
0
0
0
0
0
0
0
0
0
0
0
0
0
0
0
0
0
0
0
0
0
0
0
0
0
0
0
0
0
0
0
0
0
0
0
0
0
0
0
0
0
0
0
0
0
0
0
0
0
0
0
0
0
0
0
0
0
0
0
0
0
0
0
0
0
0
0
0
0
0
0
0
0
0
0
0
0
0
0
0
0
0
0
0
0
0
0
0
0
0
0
0
0
0
0
0
0
0
0
0
0
0
0
0
0
0
0
0
0
0
0
0
0
0
0
0
0
0
0
0
0
0
0
0
0
0
0
0
0
0
0
0
0
0
0
0
0
0
0
0
0
0
0
0
0
0
0
0
0
0
0
0
0
0
0
0
0
0
0
0
0
0
0
0
0
0
0
0
0
0
0
0
0
0
0
0
0
0
0
0
0
0
0
0
0
0
0
0
0
0
0
0
0
0
0
0
0
0
0
0
0
0
0
0
0
0
0
0
0
0
0
0
0
0
0
0
0
0
0
0
0
0
0
0
0
0
0
0
0
0
0
0
0
0
0
0
0
0
0
0
0
0
0
0
0
0
0
0
0
0
0
0
0
0
0
0
0
0
0
0
0
0
0
0
0
0
0
0
0
0
0
0
0
0
0
0
0
0
0
0
0
0
0
0
0
0
0
0
0
0
0
0
0
0
0
0
0
0
0
0
0
0
0
0
0
0
0
0
0
0
0
0
0
0
0
0
0
0
0
0
0
0
0
0
0
0
0
0
0
0
0
0
0
0
0
0
0
0
0
0
0
0
0
0
0
0
0
0
0
0
0
0
0
0
0
0
0
0
0
0
0
0
0
0
0
0
0
0
0
0
0
0
0
0
0
0
0
0
0
0
0
0
0
0
0
0
0
0
0
0
0
0
0
0
0
0
0
0
0
0
0
0
0
0
0
0
0
0
0
0
0
SCALARS damp_numerical double 1
LOOKUP_TABLE default
0.5
0.5
0.5
0.5
0.5
0.5
0.5
0.5
0.5
0.5
0.5
0.5
0.5
0.5
0.5
0.5
0.5
0.5
0.5
0.5
0.5
0.5
0.5
0.5
0.5
0.5
0.5
0.5
0.5
0.5
0.5
0.5
0.5
0.5
0.5
0.5
0.5
0.5
0.5
0.5
0.5
0.5
0.5
0.5
0.5
0.5
0.5
0.5
0.5
0.5
0.5
0.5
0.5
0.5
0.5
0.5
0.5
0.5
0.5
0.5
0.5
0.5
0.5
0.5
0.5
0.5
0.5
0.5
0.5
0.5
0.5
0.5
0.5
0.5
0.5
0.5
0.5
0.5
0.5
0.5
0.5
0.5
0.5
0.5
0.5
0.5
0.5
0.5
0.5
0.5
0.5
0.5
0.5
0.5
0.5
0.5
0.5
0.5
0.5
0.5
0.5
0.5
0.5
0.5
0.5
0.5
0.5
0.5
0.5
0.5
0.5
0.5
0.5
0.5
0.5
0.5
0.5
0.5
0.5
0.5
0.5
0.5
0.5
0.5
0.5
0.5
0.5
0.5
0.5
0.5
0.5
0.5
0.5
0.5
0.5
0.5
0.5
0.5
0.5
0.5
0.5
0.5
0.5
0.5
0.5
0.5
0.5
0.5
0.5
0.5
0.5
0.5
0.5
0.5
0.5
0.5
0.5
0.5
0.5
0.5
0.5
0.5
0.5
0.5
0.5
0.5
0.5
0.5
0.5
0.5
0.5
0.5
0.5
0.5
0.5
0.5
0.5
0.5
0.5
0.5
0.5
0.5
0.5
0.5
0.5
0.5
0.5
0.5
0.5
0.5
0.5
0.5
0.5
0.5
0.5
0.5
0.5
0.5
0.5
0.5
0.5
0.5
0.5
0.5
0.5
0.5
0.5
0.5
0.5
0.5
0.5
0.5
0.5
0.5
0.5
0.5
0.5
0.5
0.5
0.5
0.5
0.5
0.5
0.5
0.5
0.5
0.5
0.5
0.5
0.5
0.5
0.5
0.5
0.5
0.5
0.5
0.5
0.5
0.5
0.5
0.5
0.5
0.5
0.5
0.5
0.5
0.5
0.5
0.5
0.5
0.5
0.5
0.5
0.5
0.5
0.5
0.5
0.5
0.5
0.5
0.5
0.5
0.5
0.5
0.5
0.5
0.5
0.5
0.5
0.5
0.5
0.5
0.5
0.5
0.5
0.5
0.5
0.5
0.5
0.5
0.5
0.5
0.5
0.5
0.5
0.5
0.5
0.5
0.5
0.5
0.5
0.5
0.5
0.5
0.5
0.5
0.5
0.5
0.5
0.5
0.5
0.5
0.5
0.5
0.5
0.5
0.5
0.5
0.5
0.5
0.5
0.5
0.5
0.5
0.5
0.5
0.5
0.5
0.5
0.5
0.5
0.5
0.5
0.5
0.5
0.5
0.5
0.5
0.5
0.5
0.5
0.5
0.5
0.5
0.5
0.5
0.5
0.5
0.5
0.5
0.5
0.5
0.5
0.5
0.5
0.5
0.5
0.5
0.5
0.5
0.5
0.5
0.5
0.5
0.5
0.5
0.5
0.5
0.5
0.5
0.5
0.5
0.5
0.5
0.5
0.5
0.5
0.5
0.5
0.5
0.5
0.5
0.5
0.5
0.5
0.5
0.5
0.5
0.5
0.5
0.5
0.5
0.5
0.5
0.5
0.5
0.5
0.5
0.5
0.5
0.5
0.5
0.5
0.5
0.5
0.5
0.5
0.5
0.5
0.5
0.5
0.5
0.5
0.5
0.5
0.5
0.5
0.5
0.5
0.5
0.5
0.5
0.5
0.5
0.5
0.5
0.5
0.5
0.5
0.5
0.5
0.5
0.5
0.5
0.5
0.5
0.5
0.5
0.5
0.5
0.5
0.5
0.5
0.5
0.5
0.5
0.5
0.5
0.5
0.5
0.5
0.5
0.5
0.5
0.5
0.5
0.5
0.5
0.5
0.5
0.5
0.5
0.5
0.5
0.5
0.5
0.5
0.5
0.5
0.5
0.5
0.5
0.5
0.5
0.5
0.5
0.5
0.5
0.5
0.5
0.5
0.5
0.5
0.5
0.5
0.5
0.5
0.5
0.5
0.5
0.5
0.5
0.5
0.5
0.5
0.5
0.5
0.5
0.5
0.5
0.5
0.5
0.5
0.5
0.5
0.5
0.5
0.5
0.5
0.5
SCALARS quat double 4
LOOKUP_TABLE default
0.962871 0.0900308 -0.0551792 0.248453 
0.786686 0.144475 0.600095 0.0117714 
0.988194 0.105666 -0.0405813 -0.103253 
-0.371941 -0.479201 -0.551302 -0.572793 
0.0737863 0.70904 -0.382153 0.588028 
0.803552 -0.277791 -0.201838 0.486208 
0.10334 -0.293351 -0.330212 0.891194 
0.877304 0.0578683 0.345267 0.328297 
-0.112167 0.419104 0.900914 -0.0111391 
0.0761177 0.0918105 -0.00273446 0.992859 
0.926399 -0.14122 -0.0847445 0.338616 
0.164516 -0.914889 -0.227884 -0.289795 
0.0728465 0.410419 -0.0575583 0.907159 
0.595022 0.71171 0.357479 -0.107827 
0.330046 0.821287 -0.186589 0.426312 
0.99716 0.0650033 -0.0369755 0.00887383 
0.640588 0.0533928 -0.0340714 0.765269 
0.988974 0.076542 -0.0248499 0.124315 
0.973622 0.112254 -0.0908979 0.176626 
-0.763282 0.170581 0.614708 0.102158 
0.834554 0.135826 0.508008 -0.164311 
-0.297168 0.849571 -0.291451 0.324 
0.778205 -0.290448 -0.468294 -0.301228 
0.533274 0.740265 -0.388069 -0.130494 
0.984596 0.100943 -0.0982577 0.103567 
0.931216 0.155106 -0.171445 0.281754 
-0.594273 0.711461 -0.317143 0.200207 
0.974655 0.147952 -0.144087 -0.0860064 
0.711166 -0.387845 -0.437202 0.390735 
-0.161609 0.387869 -0.340912 0.840963 
0.735371 0.34926 0.507318 0.282623 
0.374947 -0.684985 -0.159652 -0.603921 
0.150843 -0.0437257 -0.944961 0.287025 
0.167012 0.122942 0.0743778 0.975428 
0.540033 0.747134 0.176806 -0.344811 
0.419819 -0.157606 0.0302605 0.893306 
-0.296253 0.506997 -0.495271 0.64023 
0.247958 0.326174 0.28183 0.867582 
0.732445 -0.626077 -0.253693 0.0847973 
0.582376 0.638259 -0.110388 -0.4912 
0.945272 0.146237 -0.162253 0.242384 
0.698367 0.191162 -0.106424 0.68148 
0.977203 -0.20684 -0.0472302 0.00777192 
0.0112532 0.8178 0.554393 -0.154028 
0.730501 -0.578565 -0.305887 -0.1951 
0.327363 0.271094 -0.679333 0.598205 
0.548364 -0.182888 0.137705 -0.804293 
-0.950936 0.145151 -0.179487 0.206001 
0.410432 0.776237 -0.386446 0.282245 
-0.841514 0.51034 0.0983845 -0.147405 
0.927418 0.294832 -0.204427 -0.105737 
0.323736 -0.120175 0.880937 -0.323577 
0.822222 -0.0681123 0.564842 0.0162646 
-0.661114 0.427164 -0.616442 -0.0214158 
-0.500993 0.495195 0.479459 -0.523361 
-0.606477 0.474098 0.481925 -0.418527 
0.0655768 0.218603 0.971057 -0.0704365 
0.0604705 -0.0577189 -0.857329 -0.507935 
-0.187452 0.0455845 0.780064 -0.595217 
0.352684 -0.910965 -0.213665 0.0102156 
-0.441526 0.233523 0.65769 -0.563885 
-0.861085 -0.0804912 -0.00776228 0.50199 
-0.280248 -0.715049 0.133007 0.626479 
0.110982 0.240089 0.955505 0.13058 
-0.0954437 0.0321064 0.993482 -0.0534138 
0.909691 0.255369 -0.294413 -0.143424 
-0.123204 -0.954067 -0.186671 0.199324 
0.961236 -0.164003 -0.128634 0.180505 
0.893382 0.0227115 0.410969 -0.180161 
-0.931591 -0.0829811 -0.107977 -0.337037 
0.640498 -0.432851 -0.305394 0.556001 
-0.56799 -0.743615 -0.342433 -0.0846339 
0.354252 0.367145 0.0358021 -0.859318 
-0.585214 0.744464 -0.293616 -0.130718 
0.945008 -0.239762 0.0208759 -0.221446 
0.960347 0.114992 -0.114832 -0.226548 
0.559707 -0.0881865 -0.637226 0.522392 
0.881901 -0.27477 0.364323 -0.118412 
-0.589739 -0.203209 -0.121948 0.772038 
-0.543365 0.183588 -0.0854106 -0.814712 
0.894869 0.237959 0.0419582 -0.375266 
-0.334 0.880786 0.0278013 0.334494 
0.924004 -0.140046 0.33114 -0.130192 
-0.221049 0.830774 -0.278181 0.428448 
0.957949 -0.265161 0.00966093 -0.109222 
0.758464 -0.480733 -0.401826 0.179347 
-0.158101 -0.340613 0.0717099 -0.924037 
0.765344 0.430322 0.262873 -0.399961 
0.322134 0.926075 0.075208 -0.181545 
-0.190887 0.557502 -0.66522 0.458515 
0.861211 -0.223464 0.396038 -0.227009 
-0.81189 0.366141 -0.451833 0.0512118 
0.882985 -0.0339981 -0.397071 0.248023 
0.833177 -0.387831 0.393599 0.0219715 
0.791107 0.0332579 0.35418 -0.497594 
0.245855 -0.510128 -0.438019 -0.698187 
0.283373 -0.793379 0.483392 0.237869 
0.234178 -0.23962 -0.717982 0.610119 
-0.599353 0.588228 0.185025 -0.510421 
0.983277 -0.109196 -0.0161845 -0.144847 
0.840851 -0.0905965 -0.0982914 -0.524501 
0.318181 0.518902 0.737336 0.292981 
-0.0312475 0.439832 -0.894561 0.0730223 
-0.617225 -0.579105 -0.531009 -0.0412373 
-0.207548 -0.0855018 -0.430844 0.874063 
0.943713 -0.145981 0.246746 0.164957 
-0.779216 0.46953 0.247564 -0.333281 
0.12291 0.747279 0.652587 -0.0244618 
0.821323 0.447766 -0.119812 -0.332536 
0.0101591 0.212264 -0.974882 0.0666712 
0.263869 -0.584317 -0.302083 0.705473 
-0.3881 -0.294371 0.681784 0.545797 
-0.0797071 -0.364199 0.24207 -0.895772 
0.821463 -0.26305 0.467584 0.19331 
-0.232312 0.0620969 0.0856256 0.966873 
0.903056 -0.357223 0.238495 -0.00114526 
-0.00627491 -0.799357 0.59846 0.0532395 
0.443239 -0.0772064 -0.397928 0.799519 
0.884464 0.0959724 0.0850238 0.448647 
0.227134 0.158782 -0.819459 0.501682 
-0.0260846 0.095643 0.448278 -0.88838 
-0.124803 -0.270025 -0.740109 0.603116 
0.32634 -0.462484 -0.420947 -0.708812 
-0.929435 -0.220078 -0.19313 0.224538 
0.758947 -0.610604 0.00654551 0.226096 
0.77566 0.297433 -0.532628 -0.161845 
0.418028 0.628475 0.563067 -0.336492 
0.515279 0.272078 0.202786 -0.786981 
-0.466626 0.266118 0.826823 -0.166746 
0.450921 -0.440382 0.704391 0.326447 
-0.0262292 0.509197 0.732195 -0.451576 
-0.994025 -0.0697132 -0.0483981 0.0686486 
-0.0820793 -0.598204 -0.796263 -0.0371562 
0.211539 0.209547 -0.948176 0.11092 
0.117524 -0.916719 0.201886 0.324123 
0.118514 -0.0686187 0.817344 0.559638 
0.270736 0.741551 0.219802 0.573142 
-0.66824 -0.735551 0.0548426 -0.0970216 
0.306917 0.915369 -0.174951 -0.193116 
-0.0550574 0.816954 -0.573546 0.0244876 
-0.492447 0.079986 -0.829154 0.252195 
0.432122 -0.280403 0.269506 0.813641 
-0.0959069 0.501596 -0.125686 0.850533 
0.93323 -0.278015 -0.189627 0.125824 
0.0108429 -0.512686 -0.779932 -0.358807 
-0.463197 -0.814352 0.238386 0.255836 
0.72522 -0.52905 0.34893 -0.26909 