# vtk DataFile Version 2.0
Generated by NetDEM
ASCII 
DATASET POLYDATA
POINTS 175 double
-0.416952 -0.405414 -0.462799 
-0.403333 -0.203333 -0.450033 
-0.412268 -0.00759779 -0.464529 
-0.40295 0.19705 -0.450033 
-0.402763 0.397237 -0.450032 
-0.256485 -0.434966 -0.460457 
-0.203538 -0.203538 -0.450033 
-0.203218 -0.00321788 -0.450033 
-0.174463 0.191725 -0.461843 
-0.243299 0.369598 -0.463613 
-0.0241547 -0.41065 -0.45179 
-0.00366947 -0.203669 -0.450035 
-0.00360232 -0.00360232 -0.450034 
0.029167 0.160588 -0.45099 
-0.0382462 0.394563 -0.464726 
0.189317 -0.398706 -0.464341 
0.174399 -0.212668 -0.465084 
0.172782 -0.0100343 -0.462489 
0.158371 0.215863 -0.463525 
0.196913 0.396913 -0.450031 
0.396713 -0.403287 -0.450033 
0.39661 -0.20339 -0.450028 
0.396488 -0.00351175 -0.450033 
0.396508 0.196508 -0.450025 
0.381808 0.430202 -0.452709 
-0.403926 -0.399665 -0.388369 
-0.403333 -0.203333 -0.350061 
-0.416299 -0.0104018 -0.391598 
-0.40295 0.19705 -0.350059 
-0.402763 0.397237 -0.350058 
-0.270382 -0.400432 -0.372803 
-0.203538 -0.203538 -0.350061 
-0.203218 -0.00321788 -0.350061 
-0.241711 0.179415 -0.401886 
-0.155842 0.389981 -0.42684 
-0.00696739 -0.398216 -0.366234 
-0.00366947 -0.203669 -0.350065 
-0.00360232 -0.00360232 -0.350062 
0.00127995 0.193546 -0.373326 
-0.00646243 0.381214 -0.376879 
0.188257 -0.398401 -0.391899 
0.194168 -0.210386 -0.392406 
0.185444 -0.0155964 -0.383996 
0.178296 0.182079 -0.377793 
0.196913 0.396913 -0.350057 
0.396713 -0.403287 -0.35006 
0.39661 -0.20339 -0.350053 
0.396488 -0.00351175 -0.35006 
0.396508 0.196508 -0.350044 
0.386039 0.395142 -0.373278 
-0.404231 -0.404471 -0.316146 
-0.403333 -0.203333 -0.250084 
-0.403866 -0.00450129 -0.311127 
-0.40295 0.19705 -0.25008 
-0.402763 0.397237 -0.250077 
-0.19305 -0.402146 -0.306996 
-0.203538 -0.203538 -0.250085 
-0.203218 -0.00321788 -0.250084 
-0.209836 0.199213 -0.314034 
-0.195885 0.41255 -0.343532 
0.00279356 -0.408799 -0.2754 
-0.00366947 -0.203669 -0.250091 
-0.00360232 -0.00360232 -0.250088 
-0.0140013 0.201214 -0.28702 
0.0208456 0.386937 -0.295514 
0.175679 -0.39836 -0.318546 
0.187182 -0.198897 -0.303154 
0.186194 -0.00420567 -0.309408 
0.214349 0.172521 -0.297857 
0.196913 0.396913 -0.250075 
0.396713 -0.403287 -0.250083 
0.39661 -0.20339 -0.250074 
0.396488 -0.00351175 -0.250084 
0.396508 0.196508 -0.250059 
0.400958 0.378474 -0.271041 
-0.410808 -0.403719 -0.236973 
-0.403333 -0.203333 -0.150105 
-0.405934 0.00321026 -0.233439 
-0.40295 0.19705 -0.150101 
-0.402763 0.397237 -0.150091 
-0.186442 -0.40527 -0.210425 
-0.203538 -0.203538 -0.150107 
-0.203218 -0.00321788 -0.150106 
-0.192133 0.193902 -0.219618 
-0.206895 0.395904 -0.256446 
0.000914136 -0.398966 -0.184529 
-0.00366947 -0.203669 -0.150113 
-0.00360232 -0.00360232 -0.15011 
-0.00424211 0.194406 -0.189484 
0.00284895 0.402546 -0.211826 
0.205986 -0.398334 -0.228615 
0.195236 -0.199821 -0.213759 
0.194785 -0.00266334 -0.229718 
0.205396 0.206816 -0.211076 
0.196913 0.396913 -0.150084 
0.396713 -0.403287 -0.150105 
0.39661 -0.20339 -0.150087 
0.396488 -0.00351175 -0.150105 
0.396508 0.196508 -0.150078 
0.395375 0.400926 -0.165835 
-0.407907 -0.404057 -0.157414 
-0.403333 -0.203333 -0.0501208 
-0.404747 -0.00502774 -0.148295 
-0.40295 0.19705 -0.0501195 
-0.402763 0.397237 -0.0501097 
-0.206761 -0.402942 -0.114162 
-0.203538 -0.203538 -0.0501227 
-0.203218 -0.00321788 -0.050122 
-0.204702 0.193464 -0.125171 
-0.201857 0.394346 -0.152137 
-0.0085145 -0.403441 -0.102349 
-0.00366947 -0.203669 -0.0501305 
-0.00360232 -0.00360232 -0.0501257 
-0.00166424 0.199584 -0.090036 
-0.00906149 0.398725 -0.12494 
0.194586 -0.405535 -0.150198 
0.193623 -0.209581 -0.12648 
0.188144 -0.00272244 -0.157791 
0.19251 0.198515 -0.122541 
0.196913 0.396913 -0.050064 
0.396713 -0.403287 -0.050122 
0.39661 -0.20339 -0.0499817 
0.396488 -0.00351175 -0.0501213 
0.396508 0.196508 -0.0498972 
0.399232 0.394909 -0.0594404 
-0.403633 -0.403633 -0.0431383 
-0.403333 -0.203333 0.0498725 
-0.403998 -0.00399844 -0.0435036 
-0.40295 0.19705 0.0499131 
-0.402763 0.397237 0.0499576 
-0.202825 -0.403048 -0.00173101 
-0.203538 -0.203538 0.0498774 
-0.203218 -0.00321788 0.0498778 
-0.203772 0.19617 -0.0283623 
-0.203347 0.396653 -0.0428521 
-0.00405114 -0.402844 -0.00689438 
-0.00366947 -0.203669 0.049849 
-0.00360232 -0.00360232 0.0498619 
-0.00202664 0.197008 0.0204192 
-0.00327624 0.396712 -0.0207161 
0.197698 -0.402302 -0.0418073 
0.196313 -0.203498 -0.0296926 
0.197391 -0.00260897 -0.0421141 
0.196446 0.196892 -0.0160188 
0.196913 0.396913 0.0500225 
0.396713 -0.403287 0.0498916 
0.39661 -0.20339 0.0501124 
0.396488 -0.00351175 0.04989 
0.396508 0.196508 0.0502509 
0.396857 0.396668 0.0463164 
-0.403633 -0.403633 0.220651 
-0.403333 -0.203333 0.220952 
-0.403998 -0.00399844 0.220286 
-0.40295 0.19705 0.221334 
-0.402763 0.397237 0.221521 
-0.203099 -0.403099 0.221185 
-0.203538 -0.203538 0.220746 
-0.203218 -0.00321788 0.221066 
-0.203937 0.196063 0.220347 
-0.203347 0.396653 0.220937 
-0.00292062 -0.402921 0.221364 
-0.00366947 -0.203669 0.220615 
-0.00360232 -0.00360232 0.220682 
-0.00217008 0.19783 0.222114 
-0.00266816 0.397332 0.221616 
0.197698 -0.402302 0.221982 
0.196222 -0.203778 0.220506 
0.197391 -0.00260897 0.221675 
0.197198 0.197198 0.221482 
0.196913 0.396913 0.221197 
0.396713 -0.403287 0.220997 
0.39661 -0.20339 0.220894 
0.396488 -0.00351175 0.220773 
0.396508 0.196508 0.220792 
0.396534 0.396534 0.220818 
VERTICES 175 350
1 0
1 1
1 2
1 3
1 4
1 5
1 6
1 7
1 8
1 9
1 10
1 11
1 12
1 13
1 14
1 15
1 16
1 17
1 18
1 19
1 20
1 21
1 22
1 23
1 24
1 25
1 26
1 27
1 28
1 29
1 30
1 31
1 32
1 33
1 34
1 35
1 36
1 37
1 38
1 39
1 40
1 41
1 42
1 43
1 44
1 45
1 46
1 47
1 48
1 49
1 50
1 51
1 52
1 53
1 54
1 55
1 56
1 57
1 58
1 59
1 60
1 61
1 62
1 63
1 64
1 65
1 66
1 67
1 68
1 69
1 70
1 71
1 72
1 73
1 74
1 75
1 76
1 77
1 78
1 79
1 80
1 81
1 82
1 83
1 84
1 85
1 86
1 87
1 88
1 89
1 90
1 91
1 92
1 93
1 94
1 95
1 96
1 97
1 98
1 99
1 100
1 101
1 102
1 103
1 104
1 105
1 106
1 107
1 108
1 109
1 110
1 111
1 112
1 113
1 114
1 115
1 116
1 117
1 118
1 119
1 120
1 121
1 122
1 123
1 124
1 125
1 126
1 127
1 128
1 129
1 130
1 131
1 132
1 133
1 134
1 135
1 136
1 137
1 138
1 139
1 140
1 141
1 142
1 143
1 144
1 145
1 146
1 147
1 148
1 149
1 150
1 151
1 152
1 153
1 154
1 155
1 156
1 157
1 158
1 159
1 160
1 161
1 162
1 163
1 164
1 165
1 166
1 167
1 168
1 169
1 170
1 171
1 172
1 173
1 174
POINT_DATA 175
SCALARS id int 1
LOOKUP_TABLE default
0
1
2
3
4
5
6
7
8
9
10
11
12
13
14
15
16
17
18
19
20
21
22
23
24
25
26
27
28
29
30
31
32
33
34
35
36
37
38
39
40
41
42
43
44
45
46
47
48
49
50
51
52
53
54
55
56
57
58
59
60
61
62
63
64
65
66
67
68
69
70
71
72
73
74
75
76
77
78
79
80
81
82
83
84
85
86
87
88
89
90
91
92
93
94
95
96
97
98
99
100
101
102
103
104
105
106
107
108
109
110
111
112
113
114
115
116
117
118
119
120
121
122
123
124
125
126
127
128
129
130
131
132
133
134
135
136
137
138
139
140
141
142
143
144
145
146
147
148
149
150
151
152
153
154
155
156
157
158
159
160
161
162
163
164
165
166
167
168
169
170
171
172
173
174
SCALARS type int 1
LOOKUP_TABLE default
0
0
0
0
0
0
0
0
0
0
0
0
0
0
0
0
0
0
0
0
0
0
0
0
0
0
0
0
0
0
0
0
0
0
0
0
0
0
0
0
0
0
0
0
0
0
0
0
0
0
0
0
0
0
0
0
0
0
0
0
0
0
0
0
0
0
0
0
0
0
0
0
0
0
0
0
0
0
0
0
0
0
0
0
0
0
0
0
0
0
0
0
0
0
0
0
0
0
0
0
0
0
0
0
0
0
0
0
0
0
0
0
0
0
0
0
0
0
0
0
0
0
0
0
0
0
0
0
0
0
0
0
0
0
0
0
0
0
0
0
0
0
0
0
0
0
0
0
0
0
0
0
0
0
0
0
0
0
0
0
0
0
0
0
0
0
0
0
0
0
0
0
0
0
0
SCALARS damp_viscous double 1
LOOKUP_TABLE default
0
0
0
0
0
0
0
0
0
0
0
0
0
0
0
0
0
0
0
0
0
0
0
0
0
0
0
0
0
0
0
0
0
0
0
0
0
0
0
0
0
0
0
0
0
0
0
0
0
0
0
0
0
0
0
0
0
0
0
0
0
0
0
0
0
0
0
0
0
0
0
0
0
0
0
0
0
0
0
0
0
0
0
0
0
0
0
0
0
0
0
0
0
0
0
0
0
0
0
0
0
0
0
0
0
0
0
0
0
0
0
0
0
0
0
0
0
0
0
0
0
0
0
0
0
0
0
0
0
0
0
0
0
0
0
0
0
0
0
0
0
0
0
0
0
0
0
0
0
0
0
0
0
0
0
0
0
0
0
0
0
0
0
0
0
0
0
0
0
0
0
0
0
0
0
SCALARS damp_numerical double 1
LOOKUP_TABLE default
0.5
0.5
0.5
0.5
0.5
0.5
0.5
0.5
0.5
0.5
0.5
0.5
0.5
0.5
0.5
0.5
0.5
0.5
0.5
0.5
0.5
0.5
0.5
0.5
0.5
0.5
0.5
0.5
0.5
0.5
0.5
0.5
0.5
0.5
0.5
0.5
0.5
0.5
0.5
0.5
0.5
0.5
0.5
0.5
0.5
0.5
0.5
0.5
0.5
0.5
0.5
0.5
0.5
0.5
0.5
0.5
0.5
0.5
0.5
0.5
0.5
0.5
0.5
0.5
0.5
0.5
0.5
0.5
0.5
0.5
0.5
0.5
0.5
0.5
0.5
0.5
0.5
0.5
0.5
0.5
0.5
0.5
0.5
0.5
0.5
0.5
0.5
0.5
0.5
0.5
0.5
0.5
0.5
0.5
0.5
0.5
0.5
0.5
0.5
0.5
0.5
0.5
0.5
0.5
0.5
0.5
0.5
0.5
0.5
0.5
0.5
0.5
0.5
0.5
0.5
0.5
0.5
0.5
0.5
0.5
0.5
0.5
0.5
0.5
0.5
0.5
0.5
0.5
0.5
0.5
0.5
0.5
0.5
0.5
0.5
0.5
0.5
0.5
0.5
0.5
0.5
0.5
0.5
0.5
0.5
0.5
0.5
0.5
0.5
0.5
0.5
0.5
0.5
0.5
0.5
0.5
0.5
0.5
0.5
0.5
0.5
0.5
0.5
0.5
0.5
0.5
0.5
0.5
0.5
0.5
0.5
0.5
0.5
0.5
0.5
SCALARS quat double 4
LOOKUP_TABLE default
0.98023 0.085411 -0.0196184 0.177393 
0.422936 0.19358 0.881935 0.076436 
0.993885 0.0641643 -0.0898686 -0.000277478 
0.933896 0.135683 0.0158348 0.330419 
0.218235 0.323535 0.831742 0.394847 
0.814335 -0.13398 -0.116753 0.552518 
0.259029 0.245797 0.696789 0.622072 
0.947128 0.0660144 0.273627 0.154011 
-0.110466 0.86546 0.458601 0.168704 
0.283269 0.168762 0.0749978 0.941092 
0.903025 0.13206 0.179311 0.367361 
0.895604 0.01201 0.325206 0.3033 
0.115508 0.577388 0.641376 0.491851 
0.466534 0.73294 0.474155 0.142553 
0.798249 0.119257 -0.0350148 0.589365 
0.99496 0.055549 -0.0834363 -0.00276723 
0.660003 0.140349 0.000301916 0.738037 
0.975128 0.0928505 -0.0153106 0.200671 
0.978173 0.0276719 -0.0628387 0.196121 
0.872998 0.106465 0.203002 0.430499 
1 0.000646178 0.000193913 0.000461524 
0.464545 0.197074 0.639242 0.580284 
0.80546 0.16019 0.208233 0.531236 
0.973067 0.0554567 0.156413 0.16 
0.979078 0.193189 0.0638815 0.00182932 
0.982393 0.108912 -0.0682608 0.135579 
0.422936 0.19358 0.881935 0.076436 
0.981172 0.0263118 -0.18053 0.0633949 
0.933896 0.135683 0.0158348 0.330419 
0.218235 0.323535 0.831742 0.394847 
0.689585 -0.057362 0.705779 0.151848 
0.259029 0.245797 0.696789 0.622072 
0.947128 0.0660144 0.273627 0.154011 
0.170731 0.5884 0.437071 0.658487 
0.0662843 0.862354 0.412945 -0.285355 
0.870585 0.255609 0.301227 0.293272 
0.895604 0.01201 0.325206 0.3033 
0.115508 0.577388 0.641376 0.491851 
0.990686 -0.103622 0.0164037 -0.0868064 
0.559331 0.722184 0.275821 0.299204 
0.958935 0.0839257 -0.195087 0.187994 
0.727952 0.287523 0.0167514 0.622202 
0.979001 0.0972239 0.0547934 0.170596 
0.679486 0.514532 0.497822 0.160401 
0.872998 0.106465 0.203002 0.430499 
1 0.000646178 0.000193913 0.000461524 
0.464545 0.197074 0.639242 0.580284 
0.80546 0.16019 0.208233 0.531236 
0.973067 0.0554567 0.156413 0.16 
0.35558 0.826566 0.436215 0.00826816 
0.959722 0.151157 -0.19126 0.13966 
0.422936 0.19358 0.881935 0.076436 
0.97619 0.0357802 -0.202872 0.0679408 
0.933896 0.135683 0.0158348 0.330419 
0.218235 0.323535 0.831742 0.394847 
0.330202 0.301954 0.832761 0.326036 
0.259029 0.245797 0.696789 0.622072 
0.947128 0.0660144 0.273627 0.154011 
-0.21229 0.911289 0.320461 -0.147614 
0.197083 -0.448153 -0.235308 0.839611 
0.855334 0.332533 0.335136 0.213329 
0.895604 0.01201 0.325206 0.3033 
0.115508 0.577388 0.641376 0.491851 
0.37558 0.767769 0.51225 -0.0840824 
0.848773 0.196123 -0.024065 0.490449 
0.938893 0.134048 -0.31322 0.0490261 
0.621872 0.431876 -0.0183216 0.653011 
0.990619 0.0907979 0.0146941 0.101059 
0.928279 0.174632 0.257307 0.203949 
0.872998 0.106465 0.203002 0.430499 
1 0.000646178 0.000193913 0.000461524 
0.464545 0.197074 0.639242 0.580284 
0.80546 0.16019 0.208233 0.531236 
0.973067 0.0554567 0.156413 0.16 
0.946718 0.109397 0.291786 -0.0813498 
0.971828 0.130459 -0.173474 0.0918521 
0.422936 0.19358 0.881935 0.076436 
0.962309 0.0467811 -0.261704 0.0573106 
0.933896 0.135683 0.0158348 0.330419 
0.218235 0.323535 0.831742 0.394847 
0.919463 -0.258297 0.149145 0.256177 
0.259029 0.245797 0.696789 0.622072 
0.947128 0.0660144 0.273627 0.154011 
0.177945 0.714872 0.300744 0.605679 
-0.0975387 0.776149 0.459563 0.420571 
0.908526 0.20774 0.163093 0.323768 
0.895604 0.01201 0.325206 0.3033 
0.115508 0.577388 0.641376 0.491851 
0.962268 0.111817 0.227791 -0.0982238 
0.786756 0.317065 -0.0775283 0.523903 
0.987136 0.0847192 0.131683 -0.0323272 
0.694688 0.410859 -0.044119 0.588776 
0.967452 0.0287076 0.080261 0.238266 
0.926529 0.0714873 0.233994 0.285797 
0.872998 0.106465 0.203002 0.430499 
1 0.000646178 0.000193913 0.000461524 
0.464545 0.197074 0.639242 0.580284 
0.80546 0.16019 0.208233 0.531236 
0.973067 0.0554567 0.156413 0.16 
0.764274 0.591441 0.256784 -0.012039 
0.953133 0.183744 -0.221695 0.0928841 
0.422936 0.19358 0.881935 0.076436 
0.937766 0.222707 -0.266391 0.00571945 
0.933896 0.135683 0.0158348 0.330419 
0.218235 0.323535 0.831742 0.394847 
0.793839 0.0257739 0.542975 0.272641 
0.259029 0.245797 0.696789 0.622072 
0.947128 0.0660144 0.273627 0.154011 
0.00194144 0.841303 0.439485 0.314734 
0.317745 0.267451 0.245785 0.875841 
0.886655 0.331687 0.0416642 0.319515 
0.895604 0.01201 0.325206 0.3033 
0.115508 0.577388 0.641376 0.491851 
0.653398 0.659196 0.372158 0.00551639 
0.759395 0.412386 -0.112052 0.490614 
0.901493 0.274746 -0.328902 0.0603961 
0.602082 0.430173 -0.152675 0.655087 
0.943317 0.137244 -0.151988 0.261184 
0.77641 0.495932 -0.0211963 0.388316 
0.872998 0.106465 0.203002 0.430499 
1 0.000646178 0.000193913 0.000461524 
0.464545 0.197074 0.639242 0.580284 
0.80546 0.16019 0.208233 0.531236 
0.973067 0.0554567 0.156413 0.16 
0.886799 0.418546 0.195598 0.0121783 
0.987695 0.113077 0.0865597 0.064658 
0.422936 0.19358 0.881935 0.076436 
0.999938 0.00834925 0.00519597 0.00514693 
0.933896 0.135683 0.0158348 0.330419 
0.218235 0.323535 0.831742 0.394847 
0.81134 0.00387961 0.50929 0.286943 
0.259029 0.245797 0.696789 0.622072 
0.947128 0.0660144 0.273627 0.154011 
0.0905101 0.817398 0.429508 0.373084 
0.241786 0.448885 0.409847 0.756351 
0.913373 0.235419 0.235854 0.233884 
0.895604 0.01201 0.325206 0.3033 
0.115508 0.577388 0.641376 0.491851 
0.810546 0.463585 0.357914 0.0012313 
0.829544 0.381095 0.145477 0.381392 
0.997984 0.0571643 0.0186911 0.0202818 
0.732997 0.287735 0.100867 0.608071 
0.94956 0.0531351 0.230499 0.205872 
0.896385 0.263057 0.26798 0.235546 
0.872998 0.106465 0.203002 0.430499 
1 0.000646178 0.000193913 0.000461524 
0.464545 0.197074 0.639242 0.580284 
0.80546 0.16019 0.208233 0.531236 
0.973067 0.0554567 0.156413 0.16 
0.831372 0.500974 0.240496 -0.00284137 
0.987695 0.113077 0.0865597 0.064658 
0.422936 0.19358 0.881935 0.076436 
0.999938 0.00834925 0.00519597 0.00514693 
0.933896 0.135683 0.0158348 0.330419 
0.218235 0.323535 0.831742 0.394847 
0.822268 0.00687642 0.488428 0.292003 
0.259029 0.245797 0.696789 0.622072 
0.947128 0.0660144 0.273627 0.154011 
0.114949 0.809678 0.432343 0.379853 
0.241786 0.448885 0.409847 0.756351 
0.907485 0.19221 0.316201 0.198854 
0.895604 0.01201 0.325206 0.3033 
0.115508 0.577388 0.641376 0.491851 
0.835101 0.483927 0.255872 0.054317 
0.824488 0.388943 0.180706 0.369174 
0.997984 0.0571643 0.0186911 0.0202818 
0.733928 0.293165 0.134605 0.597734 
0.94956 0.0531351 0.230499 0.205872 
0.894099 0.242412 0.307197 0.217838 
0.872998 0.106465 0.203002 0.430499 
1 0.000646178 0.000193913 0.000461524 
0.464545 0.197074 0.639242 0.580284 
0.80546 0.16019 0.208233 0.531236 
0.973067 0.0554567 0.156413 0.16 
0.85666 0.475253 0.200024 0.0160836 
VECTORS vel double
0.0111203 -0.00406176 0.00486875 
0 0 -0.00169822 
-0.023313 0.0013522 -0.0113239 
0 0 -0.000919508 
0 0 -0.000631708 
-0.0348003 0.0181988 0.0109946 
0 0 -0.00154648 
0 0 -0.00154288 
0.0240646 -0.0065622 -0.00963411 
-0.00166114 0.00165475 -0.000875811 
-0.00751877 -0.00251592 -0.00215546 
0 0 -0.00266181 
0 0 -0.00192918 
0.14331 -0.149659 0.00920782 
0.0285459 -0.0271215 0.0204511 
-0.0142463 -0.00246487 -0.00556691 
0.00173319 -0.018496 -0.0039881 
0.00362486 0.0049458 -0.00466281 
-0.0402146 0.0394206 0.0128362 
0 0 -0.00240845 
0 0 -0.00125733 
0 0 -0.0042531 
0 0 -0.00113249 
0 0 -0.000287702 
-0.135128 0.25145 -0.199087 
0.0124331 -0.0178215 -0.00328669 
0 0 -0.00488007 
-0.0770787 -0.000134852 -0.0167741 
0 0 -0.0028243 
0 0 -0.00110708 
-0.318301 0.046873 -0.151765 
0 0 -0.00467926 
0 0 -0.00461731 
-0.190565 -0.0547126 -0.161145 
0.284855 0.0412272 -0.399908 
-0.0882641 -0.0569497 0.00692812 
0 0 -0.00645496 
0 0 -0.00545684 
0.00247404 0.00555922 -0.438923 
0.0666867 -0.0650435 0.0253333 
-0.0402707 -0.00297352 -0.00398131 
0.0182781 0.0134912 0.0289561 
-0.0188178 -0.0434481 -0.0327169 
0.0152063 -0.135652 -0.0957221 
0 0 -0.00258114 
0 0 -0.00396824 
0 0 -0.00805317 
0 0 -0.0038462 
0 0 -0.00330807 
-0.0490391 -0.00223848 -0.137769 
0.0108832 0.0116971 0.00710966 
0 0 -0.00971269 
-0.0312972 0.0401363 0.00438031 
0 0 -0.00848036 
0 0 -0.00435753 
0.0205118 -0.0102679 -0.768539 
0 0 -0.00985597 
0 0 -0.00976299 
-0.0203226 0.001051 -0.353004 
0.0259901 0.117306 -0.240057 
0.0378596 0.0673631 0.0248712 
0 0 -0.00975217 
0 0 -0.00945626 
-0.021016 0.021238 -0.457421 
0.24079 -0.107197 -0.00532633 
-0.0372159 0.0339524 0.00859543 
0.0596438 0.118977 0.00236145 
0.0179874 0.0325127 0.0334507 
0.142663 -0.279881 -0.110878 
0 0 -0.0010258 
0 0 -0.0096386 
0 0 -0.00611019 
0 0 -0.00915534 
0 0 -0.0159316 
0.040429 -0.106086 -0.58636 
0.0389568 -0.000490572 -0.0108622 
0 0 -0.00911871 
0.0799447 0.0694685 -0.0194927 
0 0 -0.0150785 
0 0 -0.016611 
0.141099 -0.00927146 -1.09462 
0 0 -0.00982746 
0 0 -0.00984602 
0.121469 -0.0463613 -0.68102 
-0.0261109 0.0197905 -0.206102 
-0.0114556 -0.0785246 -0.088108 
0 0 -0.0114507 
0 0 -0.00944754 
-0.0266665 -0.0023533 -0.676127 
0.0747235 0.06518 -0.30037 
0.0279147 0.073805 -0.0106016 
-0.108708 -0.0376079 -0.0691647 
0.0302545 0.069842 -0.0574587 
0.0142301 -0.048029 -0.250643 
0 0 0.00053005 
0 0 -0.0118445 
0 0 -0.00141785 
0 0 -0.0107975 
0 0 -0.0263063 
0.00059172 0.0340038 -0.707443 
-0.143899 -0.0176748 -0.107019 
0 0 -0.0100619 
-0.0711005 -0.01952 -0.0464714 
0 0 -0.0102752 
0 0 -0.027828 
-0.0616078 -0.0113932 -1.22952 
0 0 -0.00356622 
0 0 -0.00374012 
-0.0771948 0.0372413 -0.568967 
0.0163687 -0.0521624 -0.320947 
0.104964 0.0793404 -0.0769861 
0 0 -0.0174564 
0 0 -0.0128965 
-0.0120278 0.0258902 -1.19932 
-0.0227054 0.102611 -0.0539502 
-0.0656392 -0.0640286 0.0539035 
0.00718438 -0.0625668 0.0294323 
-0.207524 -0.0379352 -0.0201052 
0.0807837 0.109617 -0.180952 
0 0 -0.0669174 
0 0 -0.00546637 
0 0 -0.0650866 
0 0 -0.00583932 
0 0 -0.0633635 
-0.0262604 -0.00541776 -0.727837 
0 0 -2.88315 
0 0 -0.0524139 
0 0 -2.88315 
0 0 -0.0676145 
0 0 -0.0664958 
0.015 0.00773031 -1.22488 
0 0 -0.0692678 
0 0 -0.0688442 
0.0259134 0.0166329 -0.498078 
0 0 -2.88315 
-0.0802345 0.00181456 -0.546205 
0 0 -0.0190998 
0 0 -0.0402628 
0.00291726 -0.0204421 -1.32617 
-0.0740322 -0.0724455 -0.325887 
0 0 -2.88315 
0.0108589 0.0448253 -0.378472 
0 0 -2.88315 
-0.0705418 -0.0301304 -0.396617 
0 0 -0.064496 
0 0 -0.0684854 
0 0 -0.0625319 
0 0 -0.0687948 
0 0 -0.0594922 
0.0208005 0.00258184 -0.763043 
0 0 -2.39265 
0 0 -2.39265 
0 0 -2.39265 
0 0 -2.39265 
0 0 -2.39265 
0 0 -2.39265 
0 0 -2.39265 
0 0 -2.39265 
0 0 -2.39265 
0 0 -2.39265 
0 0 -2.39265 
0 0 -2.39265 
0 0 -2.39265 
0 0 -2.39265 
0 0 -2.39265 
0 0 -2.39265 
0 0 -2.39265 
0 0 -2.39265 
0 0 -2.39265 
0 0 -2.39265 
0 0 -2.39265 
0 0 -2.39265 
0 0 -2.39265 
0 0 -2.39265 
0 0 -2.39265 
VECTORS spin double
0.139177 0.290696 -0.0902366 
0 0 0 
-0.0357819 -0.65911 -0.00571755 
0 0 0 
0 0 0 
-0.424344 -1.02434 0.354976 
0 0 0 
0 0 0 
0.0998374 0.664398 -0.199738 
7.14789e-05 -0.0452818 -0.116122 
0.0466855 -0.182803 -0.0300109 
0 0 0 
0 0 0 
3.00371 2.89321 0.275407 
0.568484 0.430204 -0.278338 
0.0687705 -0.389185 -0.00185329 
0.580502 -0.020804 -0.202195 
-0.10391 0.0716121 -0.0698433 
-1.43031 -1.66682 1.30602 
0 0 0 
0 0 0 
0 0 0 
0 0 0 
0 0 0 
-5.22131 -3.20869 -0.508359 
0.236964 -0.30526 -0.200169 
0 0 0 
0.0547911 -0.839415 0.0659565 
0 0 0 
0 0 0 
1.44034 -0.411072 1.06081 
0 0 0 
0 0 0 
1.3418 -5.81397 0.0373839 
-5.21941 5.23765 -2.90485 
1.12277 -1.67215 -1.39052 
0 0 0 
0 0 0 
-6.36615 -7.47671 0.0614847 
0.217119 0.301852 -0.226856 
-0.0586476 -0.316495 -0.0280456 
-1.67642 0.23933 -0.0393766 
1.57797 -0.566032 -0.660145 
5.22624 3.63145 -2.20156 
0 0 0 
0 0 0 
0 0 0 
0 0 0 
0 0 0 
7.58395 3.862 0.182448 
-1.2486 0.33471 -0.0268386 
0 0 0 
-1.18691 2.1907 0.949808 
0 0 0 
0 0 0 
2.08987 6.22952 0.712302 
0 0 0 
0 0 0 
-0.298731 9.88455 -0.707992 
1.91817 -7.07969 -0.488859 
-3.4791 3.63884 0.0147312 
0 0 0 
0 0 0 
5.0891 4.71238 -1.57311 
0.580241 4.76556 -0.973502 
-1.30475 0.609422 0.144014 
-0.683166 0.555646 0.519795 
-2.36044 1.17274 -1.96083 
-3.08799 -0.556964 -0.289388 
0 0 0 
0 0 0 
0 0 0 
0 0 0 
0 0 0 
-5.33927 -1.54898 1.14931 
1.59298 0.204421 0.916899 
0 0 0 
0.504167 0.620667 1.38232 
0 0 0 
0 0 0 
-1.13091 -5.78139 0.787151 
0 0 0 
0 0 0 
2.19253 -0.978905 -0.0550905 
-0.337003 7.79125 1.98045 
7.30981 -5.0394 -0.897176 
0 0 0 
0 0 0 
-5.95711 -4.70466 0.789115 
-5.31995 -9.90001 0.181993 
0.768802 0.802965 -0.592114 
5.23255 -5.05655 -1.37219 
-0.297751 -1.35593 0.146033 
-1.90169 -2.66793 -1.26247 
0 0 0 
0 0 0 
0 0 0 
0 0 0 
0 0 0 
2.85828 0.775406 -0.154486 
-0.659738 -6.06566 -1.39623 
0 0 0 
2.07187 -5.45552 -0.769615 
0 0 0 
0 0 0 
0.280797 0.247342 -0.398393 
0 0 0 
0 0 0 
-4.83865 -3.79234 0.15079 
2.97836 -6.92619 -0.54693 
-8.31368 5.90404 0.837928 
0 0 0 
0 0 0 
2.0151 -4.7889 -0.313966 
3.55096 8.43817 3.12432 
3.34918 -2.59721 1.14796 
-6.32703 8.97162 1.55686 
3.39903 -5.10783 0.950071 
-2.52175 3.23293 1.90109 
0 0 0 
0 0 0 
0 0 0 
0 0 0 
0 0 0 
-1.74306 -1.06049 0.025952 
0 0 0 
0 0 0 
0 0 0 
0 0 0 
0 0 0 
-0.563943 1.11676 0.0693995 
0 0 0 
0 0 0 
5.53857 5.36727 0.769929 
0 0 0 
9.00971 -8.63658 0.238537 
0 0 0 
0 0 0 
-1.16083 5.74436 0.504948 
1.48289 -8.1982 -0.931278 
0 0 0 
6.44527 -11.1287 -0.360678 
0 0 0 
5.83454 -6.04042 -0.045638 
0 0 0 
0 0 0 
0 0 0 
0 0 0 
0 0 0 
1.3276 1.72979 -0.144851 
0 0 0 
0 0 0 
0 0 0 
0 0 0 
0 0 0 
0 0 0 
0 0 0 
0 0 0 
0 0 0 
0 0 0 
0 0 0 
0 0 0 
0 0 0 
0 0 0 
0 0 0 
0 0 0 
0 0 0 
0 0 0 
0 0 0 
0 0 0 
0 0 0 
0 0 0 
0 0 0 
0 0 0 
0 0 0 
VECTORS force double
1.10626 -0.299524 -0.598757 
0 0 -3.29099 
-2.28028 -0.0113474 0.151922 
0 0 -1.33587 
0 0 1.14623 
1.79226 -0.954802 -0.614072 
0 0 -3.4022 
0 0 -3.24015 
1.264 -0.801206 -0.640251 
-2.73803 0.101163 -0.856609 
-4.05354 0.882943 0.0304344 
0 0 -4.06618 
0 0 -4.43852 
-1.56994 -0.667785 -1.12664 
-0.729482 0.669922 -7.04721 
-0.866222 -0.0910585 -0.244581 
2.68393 2.37806 0.792614 
1.25017 5.41316 -4.10507 
-13.3645 -1.98271 -2.14129 
0 0 3.02617 
0 0 -2.70346 
0 0 -4.55653 
0 0 -3.23199 
0 0 -4.908 
-0.101251 1.88204 -8.3846 
2.2088 -0.581306 -4.81971 
0 0 -8.91291 
-4.65878 0.727482 0.904573 
0 0 -8.46903 
0 0 -2.56987 
0 0 -13.6117 
0 0 -9.79363 
0 0 -9.54018 
-1.0786 -1.02399 -7.58101 
0 0 -13.6117 
-8.17028 4.80845 13.571 
0 0 -5.9468 
0 0 -8.53584 
0 0 -13.6117 
-1.58839 0.0176295 -12.6384 
-0.637342 -0.552635 -0.602382 
8.90968 16.9221 46.4905 
2.72794 3.87514 -0.759407 
0.919517 -9.72275 -9.60887 
0 0 4.84573 
0 0 -9.98527 
0 0 2.70173 
0 0 -10.1853 
0 0 -20.4403 
0 0 -13.6117 
-0.197851 0.0700618 -2.71624 
0 0 -1.90581 
0.135914 2.72551 2.31431 
0 0 -16.2762 
0 0 -19.7525 
0 0 -13.6117 
0 0 -3.49721 
0 0 -3.70486 
0 0 -13.6117 
0 0 -13.6117 
-0.612576 10.9606 13.9134 
0 0 -1.40603 
0 0 -0.47358 
0 0 -13.6117 
-4.21578 0.700885 -31.13 
0.362504 0.469848 3.95524 
2.7997 10.2542 -1.07673 
5.32381 6.13212 2.69642 
12.5837 -2.26022 -16.2403 
0 0 3.74177 
0 0 -8.4337 
0 0 6.74716 
0 0 -6.84363 
0 0 -28.615 
0 0 -13.6117 
-1.26382 -0.0210997 -10.2106 
0 0 8.26321 
1.36169 -1.48375 -1.32523 
0 0 7.25325 
0 0 -28.3088 
0 0 -13.6117 
0 0 9.21835 
0 0 9.02512 
0 0 -13.6117 
0 0 -13.6117 
-0.477383 -9.79661 -1.17804 
0 0 -12.7797 
0 0 -4.28336 
0 0 -13.6117 
0 0 -13.6117 
-2.64683 0.485089 0.941174 
-12.012 -5.00686 3.20791 
-4.79589 1.15109 0.491569 
-1.69969 -8.04545 -26.7248 
0 0 2.39334 
0 0 9.82088 
0 0 5.60118 
0 0 9.06474 
0 0 49.3302 
0 0 -13.6117 
-0.350112 -0.0449113 -13.9122 
0 0 -102.195 
-2.00995 0.142337 -6.91094 
0 0 18.2274 
0 0 48.0124 
0 0 -13.6117 
0 0 9.06046 
0 0 8.97996 
0 0 -13.6117 
0 0 -13.6117 
7.68636 4.37701 -12.5346 
0 0 -18.7908 
0 0 -57.24 
0 0 -13.6117 
0 0 -13.6117 
-0.270896 -0.135942 -5.40337 
10.2875 -0.952887 72.2096 
-2.83906 -2.93864 -3.97554 
3.38218 8.75737 -23.4084 
0 0 -13.6117 
0 0 11.8136 
0 0 -13.6117 
0 0 11.462 
0 0 -13.6117 
0 0 -13.6117 
0 0 -13.6117 
0 0 95.9828 
0 0 -13.6117 
0 0 -13.6117 
0 0 -13.6117 
0 0 -13.6117 
0 0 -13.6117 
0 0 -13.6117 
0 0 -13.6117 
0 0 -13.6117 
-4.71519 0.367634 7.51355 
0 0 36.0424 
0 0 64.4408 
0 0 -13.6117 
0 0 -13.6117 
0 0 -13.6117 
-3.7457 -5.28254 26.9719 
0 0 -13.6117 
-2.44632 -1.73272 49.671 
0 0 -13.6117 
0 0 -13.6117 
0 0 -13.6117 
0 0 -13.6117 
0 0 -13.6117 
0 0 -13.6117 
0 0 -13.6117 
0 0 -13.6117 
0 0 -13.6117 
0 0 -13.6117 
0 0 -13.6117 
0 0 -13.6117 
0 0 -13.6117 
0 0 -13.6117 
0 0 -13.6117 
0 0 -13.6117 
0 0 -13.6117 
0 0 -13.6117 
0 0 -13.6117 
0 0 -13.6117 
0 0 -13.6117 
0 0 -13.6117 
0 0 -13.6117 
0 0 -13.6117 
0 0 -13.6117 
0 0 -13.6117 
0 0 -13.6117 
0 0 -13.6117 
0 0 -13.6117 
0 0 -13.6117 
0 0 -13.6117 
VECTORS moment double
0.00392969 0.0464123 -0.00140904 
0 0 0 
-0.110374 -0.142588 -0.0137458 
0 0 0 
0 0 0 
0.0203071 0.0446067 -0.0260143 
0 0 0 
0 0 0 
0.0159107 0.0347334 -0.0186174 
-0.00514221 -0.107558 -0.000250768 
-0.000264563 -0.198603 -0.00498352 
0 0 0 
0 0 0 
0.0363519 -0.034998 0.00269915 
-0.0012589 0.0827714 0.0303688 
0.317856 0.12202 0.0159613 
0.336331 -0.181867 -0.00197542 
-0.340922 0.0780929 0.118193 
0.0321747 -0.280182 -0.015959 
0 0 0 
0 0 0 
0 0 0 
0 0 0 
0 0 0 
-0.0817596 -0.0412779 0.0132785 
-0.000287007 -0.00622945 0.00125557 
0 0 0 
0.0627496 0.00671196 0.0352528 
0 0 0 
0 0 0 
0 0 0 
0 0 0 
0 0 0 
0.0429769 -0.12234 -0.0130864 
0 0 0 
-0.0400252 0.0243814 -0.0453189 
0 0 0 
0 0 0 
0 0 0 
0.12186 -0.0412105 -0.0109502 
-0.286494 -0.424726 -0.021954 
-0.525753 0.716506 -0.145598 
0.345196 -0.0364544 0.0421368 
0.0126146 0.469367 -0.0490629 
0 0 0 
0 0 0 
0 0 0 
0 0 0 
0 0 0 
0 0 0 
-0.0144186 -0.0229334 -0.00851301 
0 0 0 
0.00328571 0.18695 0.0131056 
0 0 0 
0 0 0 
0 0 0 
0 0 0 
0 0 0 
0 0 0 
0 0 0 
0.0470339 0.146982 0.0273537 
0 0 0 
0 0 0 
0 0 0 
-0.142972 0.0126078 0.0349107 
-0.10454 0.0258854 -0.00157731 
0.0789295 -0.26645 0.0639132 
-0.237964 -0.0517211 0.068828 
-0.407147 -0.0812852 -0.225109 
0 0 0 
0 0 0 
0 0 0 
0 0 0 
0 0 0 
0 0 0 
0.0107697 -0.00939031 0.013188 
0 0 0 
0.0853879 -0.0688414 0.0192677 
0 0 0 
0 0 0 
0 0 0 
0 0 0 
0 0 0 
0 0 0 
0 0 0 
0.313593 -0.198108 -0.134761 
0 0 0 
0 0 0 
0 0 0 
0 0 0 
0.0606773 -0.122582 -0.0027032 
0.767318 0.0352337 0.0578594 
0.134297 -0.224795 0.015246 
0.182797 -0.437252 -0.0684608 
0 0 0 
0 0 0 
0 0 0 
0 0 0 
0 0 0 
0 0 0 
0.00205711 0.015971 -0.00478414 
0 0 0 
-0.0617725 0.0368103 -0.019311 
0 0 0 
0 0 0 
0 0 0 
0 0 0 
0 0 0 
0 0 0 
0 0 0 
-0.229788 0.0148908 0.0521243 
0 0 0 
0 0 0 
0 0 0 
0 0 0 
-0.00298223 0.16214 0.00258683 
-0.0070387 0.171662 -0.0620288 
-0.133223 0.197541 0.0209911 
-0.335448 0.0867437 0.12694 
0 0 0 
0 0 0 
0 0 0 
0 0 0 
0 0 0 
0 0 0 
0 0 0 
0 0 0 
0 0 0 
0 0 0 
0 0 0 
0 0 0 
0 0 0 
0 0 0 
0 0 0 
0 0 0 
0.296482 -0.0787437 0.0675454 
0 0 0 
0 0 0 
0 0 0 
0 0 0 
0 0 0 
0.168884 -0.303177 -0.0238755 
0 0 0 
0.635797 -0.57812 0.00874867 
0 0 0 
0 0 0 
0 0 0 
0 0 0 
0 0 0 
0 0 0 
0 0 0 
0 0 0 
0 0 0 
0 0 0 
0 0 0 
0 0 0 
0 0 0 
0 0 0 
0 0 0 
0 0 0 
0 0 0 
0 0 0 
0 0 0 
0 0 0 
0 0 0 
0 0 0 
0 0 0 
0 0 0 
0 0 0 
0 0 0 
0 0 0 
0 0 0 
0 0 0 
0 0 0 
0 0 0 
SCALARS shape_id int 1
LOOKUP_TABLE default
0
1
0
1
1
0
1
1
0
0
0
1
1
0
0
0
0
0
0
1
1
1
1
1
0
0
1
0
1
1
0
1
1
0
0
0
1
1
0
0
0
0
0
0
1
1
1
1
1
0
0
1
0
1
1
0
1
1
0
0
0
1
1
0
0
0
0
0
0
1
1
1
1
1
0
0
1
0
1
1
0
1
1
0
0
0
1
1
0
0
0
0
0
0
1
1
1
1
1
0
0
1
0
1
1
0
1
1
0
0
0
1
1
0
0
0
0
0
0
1
1
1
1
1
0
0
1
0
1
1
0
1
1
0
0
0
1
1
0
0
0
0
0
0
1
1
1
1
1
0
0
1
0
1
1
0
1
1
0
0
0
1
1
0
0
0
0
0
0
1
1
1
1
1
0
SCALARS size double 1
LOOKUP_TABLE default
0.1
0.1
0.1
0.1
0.1
0.1
0.1
0.1
0.1
0.1
0.1
0.1
0.1
0.1
0.1
0.1
0.1
0.1
0.1
0.1
0.1
0.1
0.1
0.1
0.1
0.1
0.1
0.1
0.1
0.1
0.1
0.1
0.1
0.1
0.1
0.1
0.1
0.1
0.1
0.1
0.1
0.1
0.1
0.1
0.1
0.1
0.1
0.1
0.1
0.1
0.1
0.1
0.1
0.1
0.1
0.1
0.1
0.1
0.1
0.1
0.1
0.1
0.1
0.1
0.1
0.1
0.1
0.1
0.1
0.1
0.1
0.1
0.1
0.1
0.1
0.1
0.1
0.1
0.1
0.1
0.1
0.1
0.1
0.1
0.1
0.1
0.1
0.1
0.1
0.1
0.1
0.1
0.1
0.1
0.1
0.1
0.1
0.1
0.1
0.1
0.1
0.1
0.1
0.1
0.1
0.1
0.1
0.1
0.1
0.1
0.1
0.1
0.1
0.1
0.1
0.1
0.1
0.1
0.1
0.1
0.1
0.1
0.1
0.1
0.1
0.1
0.1
0.1
0.1
0.1
0.1
0.1
0.1
0.1
0.1
0.1
0.1
0.1
0.1
0.1
0.1
0.1
0.1
0.1
0.1
0.1
0.1
0.1
0.1
0.1
0.1
0.1
0.1
0.1
0.1
0.1
0.1
0.1
0.1
0.1
0.1
0.1
0.1
0.1
0.1
0.1
0.1
0.1
0.1
0.1
0.1
0.1
0.1
0.1
0.1
SCALARS mass double 1
LOOKUP_TABLE default
1.38754
1.38754
1.38754
1.38754
1.38754
1.38754
1.38754
1.38754
1.38754
1.38754
1.38754
1.38754
1.38754
1.38754
1.38754
1.38754
1.38754
1.38754
1.38754
1.38754
1.38754
1.38754
1.38754
1.38754
1.38754
1.38754
1.38754
1.38754
1.38754
1.38754
1.38754
1.38754
1.38754
1.38754
1.38754
1.38754
1.38754
1.38754
1.38754
1.38754
1.38754
1.38754
1.38754
1.38754
1.38754
1.38754
1.38754
1.38754
1.38754
1.38754
1.38754
1.38754
1.38754
1.38754
1.38754
1.38754
1.38754
1.38754
1.38754
1.38754
1.38754
1.38754
1.38754
1.38754
1.38754
1.38754
1.38754
1.38754
1.38754
1.38754
1.38754
1.38754
1.38754
1.38754
1.38754
1.38754
1.38754
1.38754
1.38754
1.38754
1.38754
1.38754
1.38754
1.38754
1.38754
1.38754
1.38754
1.38754
1.38754
1.38754
1.38754
1.38754
1.38754
1.38754
1.38754
1.38754
1.38754
1.38754
1.38754
1.38754
1.38754
1.38754
1.38754
1.38754
1.38754
1.38754
1.38754
1.38754
1.38754
1.38754
1.38754
1.38754
1.38754
1.38754
1.38754
1.38754
1.38754
1.38754
1.38754
1.38754
1.38754
1.38754
1.38754
1.38754
1.38754
1.38754
1.38754
1.38754
1.38754
1.38754
1.38754
1.38754
1.38754
1.38754
1.38754
1.38754
1.38754
1.38754
1.38754
1.38754
1.38754
1.38754
1.38754
1.38754
1.38754
1.38754
1.38754
1.38754
1.38754
1.38754
1.38754
1.38754
1.38754
1.38754
1.38754
1.38754
1.38754
1.38754
1.38754
1.38754
1.38754
1.38754
1.38754
1.38754
1.38754
1.38754
1.38754
1.38754
1.38754
1.38754
1.38754
1.38754
1.38754
1.38754