# vtk DataFile Version 2.0
Generated by NetDEM
ASCII 
DATASET POLYDATA
POINTS 100 double
-0.412818 -0.403762 -0.459203 
-0.403333 -0.203333 -0.450007 
-0.411349 -0.00363617 -0.463379 
-0.40295 0.19705 -0.450007 
-0.402763 0.397237 -0.450007 
-0.205449 -0.409346 -0.439447 
-0.203538 -0.203538 -0.450007 
-0.203218 -0.00321788 -0.450007 
-0.194662 0.196743 -0.449924 
-0.207607 0.393136 -0.447597 
-0.00992201 -0.407728 -0.445878 
-0.00366947 -0.203669 -0.450007 
-0.00360232 -0.00360232 -0.450007 
0.00181488 0.196423 -0.443638 
-0.00825482 0.395812 -0.445483 
0.188157 -0.401658 -0.464179 
0.187467 -0.208281 -0.454297 
0.18976 -0.00401867 -0.449467 
0.193307 0.201614 -0.444923 
0.196913 0.396913 -0.450007 
0.396713 -0.403287 -0.450007 
0.39661 -0.20339 -0.450007 
0.396488 -0.00351175 -0.450007 
0.396508 0.196508 -0.450007 
0.398988 0.396051 -0.442454 
-0.403633 -0.403633 -0.193427 
-0.403333 -0.203333 -0.193126 
-0.403998 -0.00399844 -0.193792 
-0.40295 0.19705 -0.192744 
-0.402763 0.397237 -0.192557 
-0.203099 -0.403099 -0.192893 
-0.203538 -0.203538 -0.193332 
-0.203218 -0.00321788 -0.193012 
-0.203937 0.196063 -0.193731 
-0.203347 0.396653 -0.193141 
-0.00292062 -0.402921 -0.192714 
-0.00366947 -0.203669 -0.193463 
-0.00360232 -0.00360232 -0.193396 
-0.00217008 0.19783 -0.191964 
-0.00266816 0.397332 -0.192462 
0.197698 -0.402302 -0.192096 
0.196222 -0.203778 -0.193572 
0.197391 -0.00260897 -0.192403 
0.197198 0.197198 -0.192596 
0.196913 0.396913 -0.192881 
0.396713 -0.403287 -0.193081 
0.39661 -0.20339 -0.193184 
0.396488 -0.00351175 -0.193305 
0.396508 0.196508 -0.193286 
0.396534 0.396534 -0.19326 
-0.403633 -0.403633 0.0948877 
-0.403333 -0.203333 0.0951883 
-0.403998 -0.00399844 0.0945224 
-0.40295 0.19705 0.0955704 
-0.402763 0.397237 0.0957576 
-0.203099 -0.403099 0.0954219 
-0.203538 -0.203538 0.0949827 
-0.203218 -0.00321788 0.095303 
-0.203937 0.196063 0.0945835 
-0.203347 0.396653 0.0951739 
-0.00292062 -0.402921 0.0956002 
-0.00366947 -0.203669 0.0948514 
-0.00360232 -0.00360232 0.0949185 
-0.00217008 0.19783 0.0963508 
-0.00266816 0.397332 0.0958527 
0.197698 -0.402302 0.0962187 
0.196222 -0.203778 0.0947426 
0.197391 -0.00260897 0.0959119 
0.197198 0.197198 0.0957186 
0.196913 0.396913 0.0954339 
0.396713 -0.403287 0.0952335 
0.39661 -0.20339 0.0951304 
0.396488 -0.00351175 0.0950091 
0.396508 0.196508 0.0950287 
0.396534 0.396534 0.0950544 
-0.403633 -0.403633 0.334152 
-0.403333 -0.203333 0.334453 
-0.403998 -0.00399844 0.333787 
-0.40295 0.19705 0.334835 
-0.402763 0.397237 0.335022 
-0.203099 -0.403099 0.334686 
-0.203538 -0.203538 0.334247 
-0.203218 -0.00321788 0.334568 
-0.203937 0.196063 0.333848 
-0.203347 0.396653 0.334438 
-0.00292062 -0.402921 0.334865 
-0.00366947 -0.203669 0.334116 
-0.00360232 -0.00360232 0.334183 
-0.00217008 0.19783 0.335615 
-0.00266816 0.397332 0.335117 
0.197698 -0.402302 0.335483 
0.196222 -0.203778 0.334007 
0.197391 -0.00260897 0.335176 
0.197198 0.197198 0.334983 
0.196913 0.396913 0.334698 
0.396713 -0.403287 0.334498 
0.39661 -0.20339 0.334395 
0.396488 -0.00351175 0.334274 
0.396508 0.196508 0.334293 
0.396534 0.396534 0.334319 
VERTICES 100 200
1 0
1 1
1 2
1 3
1 4
1 5
1 6
1 7
1 8
1 9
1 10
1 11
1 12
1 13
1 14
1 15
1 16
1 17
1 18
1 19
1 20
1 21
1 22
1 23
1 24
1 25
1 26
1 27
1 28
1 29
1 30
1 31
1 32
1 33
1 34
1 35
1 36
1 37
1 38
1 39
1 40
1 41
1 42
1 43
1 44
1 45
1 46
1 47
1 48
1 49
1 50
1 51
1 52
1 53
1 54
1 55
1 56
1 57
1 58
1 59
1 60
1 61
1 62
1 63
1 64
1 65
1 66
1 67
1 68
1 69
1 70
1 71
1 72
1 73
1 74
1 75
1 76
1 77
1 78
1 79
1 80
1 81
1 82
1 83
1 84
1 85
1 86
1 87
1 88
1 89
1 90
1 91
1 92
1 93
1 94
1 95
1 96
1 97
1 98
1 99
POINT_DATA 100
SCALARS id int 1
LOOKUP_TABLE default
0
1
2
3
4
5
6
7
8
9
10
11
12
13
14
15
16
17
18
19
20
21
22
23
24
25
26
27
28
29
30
31
32
33
34
35
36
37
38
39
40
41
42
43
44
45
46
47
48
49
50
51
52
53
54
55
56
57
58
59
60
61
62
63
64
65
66
67
68
69
70
71
72
73
74
75
76
77
78
79
80
81
82
83
84
85
86
87
88
89
90
91
92
93
94
95
96
97
98
99
SCALARS type int 1
LOOKUP_TABLE default
0
0
0
0
0
0
0
0
0
0
0
0
0
0
0
0
0
0
0
0
0
0
0
0
0
0
0
0
0
0
0
0
0
0
0
0
0
0
0
0
0
0
0
0
0
0
0
0
0
0
0
0
0
0
0
0
0
0
0
0
0
0
0
0
0
0
0
0
0
0
0
0
0
0
0
0
0
0
0
0
0
0
0
0
0
0
0
0
0
0
0
0
0
0
0
0
0
0
0
0
SCALARS damp_viscous double 1
LOOKUP_TABLE default
0
0
0
0
0
0
0
0
0
0
0
0
0
0
0
0
0
0
0
0
0
0
0
0
0
0
0
0
0
0
0
0
0
0
0
0
0
0
0
0
0
0
0
0
0
0
0
0
0
0
0
0
0
0
0
0
0
0
0
0
0
0
0
0
0
0
0
0
0
0
0
0
0
0
0
0
0
0
0
0
0
0
0
0
0
0
0
0
0
0
0
0
0
0
0
0
0
0
0
0
SCALARS damp_numerical double 1
LOOKUP_TABLE default
0.5
0.5
0.5
0.5
0.5
0.5
0.5
0.5
0.5
0.5
0.5
0.5
0.5
0.5
0.5
0.5
0.5
0.5
0.5
0.5
0.5
0.5
0.5
0.5
0.5
0.5
0.5
0.5
0.5
0.5
0.5
0.5
0.5
0.5
0.5
0.5
0.5
0.5
0.5
0.5
0.5
0.5
0.5
0.5
0.5
0.5
0.5
0.5
0.5
0.5
0.5
0.5
0.5
0.5
0.5
0.5
0.5
0.5
0.5
0.5
0.5
0.5
0.5
0.5
0.5
0.5
0.5
0.5
0.5
0.5
0.5
0.5
0.5
0.5
0.5
0.5
0.5
0.5
0.5
0.5
0.5
0.5
0.5
0.5
0.5
0.5
0.5
0.5
0.5
0.5
0.5
0.5
0.5
0.5
0.5
0.5
0.5
0.5
0.5
0.5
SCALARS quat double 4
LOOKUP_TABLE default
0.991339 0.107979 0.0010817 0.0747428 
0.422936 0.19358 0.881935 0.076436 
0.996256 0.0036157 -0.0862377 0.0048981 
0.933896 0.135683 0.0158348 0.330419 
0.218235 0.323535 0.831742 0.394847 
0.830967 0.0453721 0.456749 0.314349 
0.259029 0.245797 0.696789 0.622072 
0.947128 0.0660144 0.273627 0.154011 
0.0778815 0.832886 0.447644 0.315991 
0.244983 0.427841 0.373448 0.785794 
0.915787 0.216759 0.256345 0.220539 
0.895604 0.01201 0.325206 0.3033 
0.115508 0.577388 0.641376 0.491851 
0.81962 0.495761 0.284195 0.040946 
0.826563 0.380551 0.137476 0.391248 
0.994067 0.0405922 -0.094636 0.0350409 
0.728182 0.271051 0.0572097 0.626904 
0.96194 0.0503638 0.164548 0.212273 
0.912504 0.197645 0.28544 0.216326 
0.872998 0.106465 0.203002 0.430499 
1 0.000646178 0.000193913 0.000461524 
0.464545 0.197074 0.639242 0.580284 
0.80546 0.16019 0.208233 0.531236 
0.973067 0.0554567 0.156413 0.16 
0.850163 0.479046 0.218372 0.00711797 
0.987695 0.113077 0.0865597 0.064658 
0.422936 0.19358 0.881935 0.076436 
0.999938 0.00834925 0.00519597 0.00514693 
0.933896 0.135683 0.0158348 0.330419 
0.218235 0.323535 0.831742 0.394847 
0.822268 0.00687642 0.488428 0.292003 
0.259029 0.245797 0.696789 0.622072 
0.947128 0.0660144 0.273627 0.154011 
0.114949 0.809678 0.432343 0.379853 
0.241786 0.448885 0.409847 0.756351 
0.907485 0.19221 0.316201 0.198854 
0.895604 0.01201 0.325206 0.3033 
0.115508 0.577388 0.641376 0.491851 
0.835101 0.483927 0.255872 0.054317 
0.824488 0.388943 0.180706 0.369174 
0.997984 0.0571643 0.0186911 0.0202818 
0.733928 0.293165 0.134605 0.597734 
0.94956 0.0531351 0.230499 0.205872 
0.894099 0.242412 0.307197 0.217838 
0.872998 0.106465 0.203002 0.430499 
1 0.000646178 0.000193913 0.000461524 
0.464545 0.197074 0.639242 0.580284 
0.80546 0.16019 0.208233 0.531236 
0.973067 0.0554567 0.156413 0.16 
0.85666 0.475253 0.200024 0.0160836 
0.987695 0.113077 0.0865597 0.064658 
0.422936 0.19358 0.881935 0.076436 
0.999938 0.00834925 0.00519597 0.00514693 
0.933896 0.135683 0.0158348 0.330419 
0.218235 0.323535 0.831742 0.394847 
0.822268 0.00687642 0.488428 0.292003 
0.259029 0.245797 0.696789 0.622072 
0.947128 0.0660144 0.273627 0.154011 
0.114949 0.809678 0.432343 0.379853 
0.241786 0.448885 0.409847 0.756351 
0.907485 0.19221 0.316201 0.198854 
0.895604 0.01201 0.325206 0.3033 
0.115508 0.577388 0.641376 0.491851 
0.835101 0.483927 0.255872 0.054317 
0.824488 0.388943 0.180706 0.369174 
0.997984 0.0571643 0.0186911 0.0202818 
0.733928 0.293165 0.134605 0.597734 
0.94956 0.0531351 0.230499 0.205872 
0.894099 0.242412 0.307197 0.217838 
0.872998 0.106465 0.203002 0.430499 
1 0.000646178 0.000193913 0.000461524 
0.464545 0.197074 0.639242 0.580284 
0.80546 0.16019 0.208233 0.531236 
0.973067 0.0554567 0.156413 0.16 
0.85666 0.475253 0.200024 0.0160836 
0.987695 0.113077 0.0865597 0.064658 
0.422936 0.19358 0.881935 0.076436 
0.999938 0.00834925 0.00519597 0.00514693 
0.933896 0.135683 0.0158348 0.330419 
0.218235 0.323535 0.831742 0.394847 
0.822268 0.00687642 0.488428 0.292003 
0.259029 0.245797 0.696789 0.622072 
0.947128 0.0660144 0.273627 0.154011 
0.114949 0.809678 0.432343 0.379853 
0.241786 0.448885 0.409847 0.756351 
0.907485 0.19221 0.316201 0.198854 
0.895604 0.01201 0.325206 0.3033 
0.115508 0.577388 0.641376 0.491851 
0.835101 0.483927 0.255872 0.054317 
0.824488 0.388943 0.180706 0.369174 
0.997984 0.0571643 0.0186911 0.0202818 
0.733928 0.293165 0.134605 0.597734 
0.94956 0.0531351 0.230499 0.205872 
0.894099 0.242412 0.307197 0.217838 
0.872998 0.106465 0.203002 0.430499 
1 0.000646178 0.000193913 0.000461524 
0.464545 0.197074 0.639242 0.580284 
0.80546 0.16019 0.208233 0.531236 
0.973067 0.0554567 0.156413 0.16 
0.85666 0.475253 0.200024 0.0160836 
VECTORS vel double
-0.410471 -0.00623351 -0.237896 
0 0 -3.40369e-09 
-0.319888 -0.00280793 -0.0289533 
0 0 -3.55323e-09 
0 0 -3.22243e-09 
-0.0901861 -0.238979 -0.0159331 
0 0 -3.21679e-09 
0 0 -3.3799e-09 
0.382363 0.0280055 -0.161162 
-0.155756 -0.151004 -0.0180748 
-0.280988 -0.192901 -0.144055 
0 0 -3.22216e-09 
0 0 -3.21903e-09 
0.162787 -0.0605299 -0.0187251 
-0.224616 -0.0606613 -0.116711 
-0.192497 -0.0176179 0.205614 
-0.373337 -0.191929 -0.20168 
-0.321224 -0.0592169 -0.133632 
-0.163365 0.151476 -0.0219674 
0 0 -3.04546e-09 
0 0 -3.39462e-09 
0 0 -2.88505e-09 
0 0 -3.21598e-09 
0 0 -3.21456e-09 
0.100361 -0.0199615 -0.0150491 
0 0 -3.1284 
0 0 -3.1284 
0 0 -3.1284 
0 0 -3.1284 
0 0 -3.1284 
0 0 -3.1284 
0 0 -3.1284 
0 0 -3.1284 
0 0 -3.1284 
0 0 -3.1284 
0 0 -3.1284 
0 0 -3.1284 
0 0 -3.1284 
0 0 -3.1284 
0 0 -3.1284 
0 0 -3.1284 
0 0 -3.1284 
0 0 -3.1284 
0 0 -3.1284 
0 0 -3.1284 
0 0 -3.1284 
0 0 -3.1284 
0 0 -3.1284 
0 0 -3.1284 
0 0 -3.1284 
0 0 -2.6379 
0 0 -2.6379 
0 0 -2.6379 
0 0 -2.6379 
0 0 -2.6379 
0 0 -2.6379 
0 0 -2.6379 
0 0 -2.6379 
0 0 -2.6379 
0 0 -2.6379 
0 0 -2.6379 
0 0 -2.6379 
0 0 -2.6379 
0 0 -2.6379 
0 0 -2.6379 
0 0 -2.6379 
0 0 -2.6379 
0 0 -2.6379 
0 0 -2.6379 
0 0 -2.6379 
0 0 -2.6379 
0 0 -2.6379 
0 0 -2.6379 
0 0 -2.6379 
0 0 -2.6379 
0 0 -2.1474 
0 0 -2.1474 
0 0 -2.1474 
0 0 -2.1474 
0 0 -2.1474 
0 0 -2.1474 
0 0 -2.1474 
0 0 -2.1474 
0 0 -2.1474 
0 0 -2.1474 
0 0 -2.1474 
0 0 -2.1474 
0 0 -2.1474 
0 0 -2.1474 
0 0 -2.1474 
0 0 -2.1474 
0 0 -2.1474 
0 0 -2.1474 
0 0 -2.1474 
0 0 -2.1474 
0 0 -2.1474 
0 0 -2.1474 
0 0 -2.1474 
0 0 -2.1474 
0 0 -2.1474 
VECTORS spin double
0.10597 -7.08247 0.0391623 
0 0 0 
0.0499205 -8.66342 -0.172993 
0 0 0 
0 0 0 
3.9558 -1.47699 -0.237743 
0 0 0 
0 0 0 
-0.0183137 6.16777 0.678368 
2.83589 -2.8957 -0.251817 
3.0731 -4.33715 -0.0868187 
0 0 0 
0 0 0 
1.0637 2.87954 -0.0010037 
0.959727 -3.74417 0.158496 
2.08515 -4.94307 0.908733 
2.85174 -6.21523 0.396796 
0.950567 -5.37495 0.0227012 
-2.76461 -2.97588 0.0370198 
0 0 0 
0 0 0 
0 0 0 
0 0 0 
0 0 0 
0.350529 1.7436 0.0247773 
0 0 0 
0 0 0 
0 0 0 
0 0 0 
0 0 0 
0 0 0 
0 0 0 
0 0 0 
0 0 0 
0 0 0 
0 0 0 
0 0 0 
0 0 0 
0 0 0 
0 0 0 
0 0 0 
0 0 0 
0 0 0 
0 0 0 
0 0 0 
0 0 0 
0 0 0 
0 0 0 
0 0 0 
0 0 0 
0 0 0 
0 0 0 
0 0 0 
0 0 0 
0 0 0 
0 0 0 
0 0 0 
0 0 0 
0 0 0 
0 0 0 
0 0 0 
0 0 0 
0 0 0 
0 0 0 
0 0 0 
0 0 0 
0 0 0 
0 0 0 
0 0 0 
0 0 0 
0 0 0 
0 0 0 
0 0 0 
0 0 0 
0 0 0 
0 0 0 
0 0 0 
0 0 0 
0 0 0 
0 0 0 
0 0 0 
0 0 0 
0 0 0 
0 0 0 
0 0 0 
0 0 0 
0 0 0 
0 0 0 
0 0 0 
0 0 0 
0 0 0 
0 0 0 
0 0 0 
0 0 0 
0 0 0 
0 0 0 
0 0 0 
0 0 0 
0 0 0 
0 0 0 
VECTORS force double
0 0 -13.6117 
0 0 2.02374e-06 
0 0 -13.6117 
0 0 1.52473e-06 
0 0 1.82211e-06 
-0.241328 -0.384567 -3.02603 
0 0 1.98559e-06 
0 0 1.69925e-06 
0 0 -13.6117 
1.26449 -1.89453 -3.8579 
0 0 -13.6117 
0 0 2.31417e-06 
0 0 2.15335e-06 
0.185908 -1.33451 -5.38064 
0 0 -13.6117 
129.199 -56.488 108.195 
0 0 -13.6117 
0 0 -13.6117 
-2.24151 -1.67952 -4.77521 
0 0 2.08081e-06 
0 0 1.90842e-06 
0 0 2.15452e-06 
0 0 1.91884e-06 
0 0 1.8609e-06 
1.33806 -0.278262 -0.715976 
0 0 -13.6117 
0 0 -13.6117 
0 0 -13.6117 
0 0 -13.6117 
0 0 -13.6117 
0 0 -13.6117 
0 0 -13.6117 
0 0 -13.6117 
0 0 -13.6117 
0 0 -13.6117 
0 0 -13.6117 
0 0 -13.6117 
0 0 -13.6117 
0 0 -13.6117 
0 0 -13.6117 
0 0 -13.6117 
0 0 -13.6117 
0 0 -13.6117 
0 0 -13.6117 
0 0 -13.6117 
0 0 -13.6117 
0 0 -13.6117 
0 0 -13.6117 
0 0 -13.6117 
0 0 -13.6117 
0 0 -13.6117 
0 0 -13.6117 
0 0 -13.6117 
0 0 -13.6117 
0 0 -13.6117 
0 0 -13.6117 
0 0 -13.6117 
0 0 -13.6117 
0 0 -13.6117 
0 0 -13.6117 
0 0 -13.6117 
0 0 -13.6117 
0 0 -13.6117 
0 0 -13.6117 
0 0 -13.6117 
0 0 -13.6117 
0 0 -13.6117 
0 0 -13.6117 
0 0 -13.6117 
0 0 -13.6117 
0 0 -13.6117 
0 0 -13.6117 
0 0 -13.6117 
0 0 -13.6117 
0 0 -13.6117 
0 0 -13.6117 
0 0 -13.6117 
0 0 -13.6117 
0 0 -13.6117 
0 0 -13.6117 
0 0 -13.6117 
0 0 -13.6117 
0 0 -13.6117 
0 0 -13.6117 
0 0 -13.6117 
0 0 -13.6117 
0 0 -13.6117 
0 0 -13.6117 
0 0 -13.6117 
0 0 -13.6117 
0 0 -13.6117 
0 0 -13.6117 
0 0 -13.6117 
0 0 -13.6117 
0 0 -13.6117 
0 0 -13.6117 
0 0 -13.6117 
0 0 -13.6117 
0 0 -13.6117 
0 0 -13.6117 
VECTORS moment double
0 0 0 
0 0 0 
0 0 0 
0 0 0 
0 0 0 
0.0101564 -0.00925673 -0.000104747 
0 0 0 
0 0 0 
0 0 0 
0.057069 0.026178 -0.00231377 
0 0 0 
0 0 0 
0 0 0 
0.0142528 0.0180186 0.00259945 
0 0 0 
-0.346571 0.789453 0.733716 
0 0 0 
0 0 0 
0.0362672 -0.0610302 -0.00240001 
0 0 0 
0 0 0 
0 0 0 
0 0 0 
0 0 0 
0.00134726 0.03068 0.000522215 
0 0 0 
0 0 0 
0 0 0 
0 0 0 
0 0 0 
0 0 0 
0 0 0 
0 0 0 
0 0 0 
0 0 0 
0 0 0 
0 0 0 
0 0 0 
0 0 0 
0 0 0 
0 0 0 
0 0 0 
0 0 0 
0 0 0 
0 0 0 
0 0 0 
0 0 0 
0 0 0 
0 0 0 
0 0 0 
0 0 0 
0 0 0 
0 0 0 
0 0 0 
0 0 0 
0 0 0 
0 0 0 
0 0 0 
0 0 0 
0 0 0 
0 0 0 
0 0 0 
0 0 0 
0 0 0 
0 0 0 
0 0 0 
0 0 0 
0 0 0 
0 0 0 
0 0 0 
0 0 0 
0 0 0 
0 0 0 
0 0 0 
0 0 0 
0 0 0 
0 0 0 
0 0 0 
0 0 0 
0 0 0 
0 0 0 
0 0 0 
0 0 0 
0 0 0 
0 0 0 
0 0 0 
0 0 0 
0 0 0 
0 0 0 
0 0 0 
0 0 0 
0 0 0 
0 0 0 
0 0 0 
0 0 0 
0 0 0 
0 0 0 
0 0 0 
0 0 0 
0 0 0 
SCALARS shape_id int 1
LOOKUP_TABLE default
0
1
0
1
1
0
1
1
0
0
0
1
1
0
0
0
0
0
0
1
1
1
1
1
0
0
1
0
1
1
0
1
1
0
0
0
1
1
0
0
0
0
0
0
1
1
1
1
1
0
0
1
0
1
1
0
1
1
0
0
0
1
1
0
0
0
0
0
0
1
1
1
1
1
0
0
1
0
1
1
0
1
1
0
0
0
1
1
0
0
0
0
0
0
1
1
1
1
1
0
SCALARS size double 1
LOOKUP_TABLE default
0.1
0.1
0.1
0.1
0.1
0.1
0.1
0.1
0.1
0.1
0.1
0.1
0.1
0.1
0.1
0.1
0.1
0.1
0.1
0.1
0.1
0.1
0.1
0.1
0.1
0.1
0.1
0.1
0.1
0.1
0.1
0.1
0.1
0.1
0.1
0.1
0.1
0.1
0.1
0.1
0.1
0.1
0.1
0.1
0.1
0.1
0.1
0.1
0.1
0.1
0.1
0.1
0.1
0.1
0.1
0.1
0.1
0.1
0.1
0.1
0.1
0.1
0.1
0.1
0.1
0.1
0.1
0.1
0.1
0.1
0.1
0.1
0.1
0.1
0.1
0.1
0.1
0.1
0.1
0.1
0.1
0.1
0.1
0.1
0.1
0.1
0.1
0.1
0.1
0.1
0.1
0.1
0.1
0.1
0.1
0.1
0.1
0.1
0.1
0.1
SCALARS mass double 1
LOOKUP_TABLE default
1.38754
1.38754
1.38754
1.38754
1.38754
1.38754
1.38754
1.38754
1.38754
1.38754
1.38754
1.38754
1.38754
1.38754
1.38754
1.38754
1.38754
1.38754
1.38754
1.38754
1.38754
1.38754
1.38754
1.38754
1.38754
1.38754
1.38754
1.38754
1.38754
1.38754
1.38754
1.38754
1.38754
1.38754
1.38754
1.38754
1.38754
1.38754
1.38754
1.38754
1.38754
1.38754
1.38754
1.38754
1.38754
1.38754
1.38754
1.38754
1.38754
1.38754
1.38754
1.38754
1.38754
1.38754
1.38754
1.38754
1.38754
1.38754
1.38754
1.38754
1.38754
1.38754
1.38754
1.38754
1.38754
1.38754
1.38754
1.38754
1.38754
1.38754
1.38754
1.38754
1.38754
1.38754
1.38754
1.38754
1.38754
1.38754
1.38754
1.38754
1.38754
1.38754
1.38754
1.38754
1.38754
1.38754
1.38754
1.38754
1.38754
1.38754
1.38754
1.38754
1.38754
1.38754
1.38754
1.38754
1.38754
1.38754
1.38754
1.38754
VECTORS moi double
0.00116818 0.00159003 0.00189584 
0.00138754 0.00138754 0.00138754 
0.00116818 0.00159003 0.00189584 
0.00138754 0.00138754 0.00138754 
0.00138754 0.00138754 0.00138754 
0.00116818 0.00159003 0.00189584 
0.00138754 0.00138754 0.00138754 
0.00138754 0.00138754 0.00138754 
0.00116818 0.00159003 0.00189584 
0.00116818 0.00159003 0.00189584 
0.00116818 0.00159003 0.00189584 
0.00138754 0.00138754 0.00138754 
0.00138754 0.00138754 0.00138754 
0.00116818 0.00159003 0.00189584 
0.00116818 0.00159003 0.00189584 
0.00116818 0.00159003 0.00189584 
0.00116818 0.00159003 0.00189584 
0.00116818 0.00159003 0.00189584 
0.00116818 0.00159003 0.00189584 
0.00138754 0.00138754 0.00138754 
0.00138754 0.00138754 0.00138754 
0.00138754 0.00138754 0.00138754 
0.00138754 0.00138754 0.00138754 
0.00138754 0.00138754 0.00138754 
0.00116818 0.00159003 0.00189584 
0.00116818 0.00159003 0.00189584 
0.00138754 0.00138754 0.00138754 
0.00116818 0.00159003 0.00189584 
0.00138754 0.00138754 0.00138754 
0.00138754 0.00138754 0.00138754 
0.00116818 0.00159003 0.00189584 
0.00138754 0.00138754 0.00138754 
0.00138754 0.00138754 0.00138754 
0.00116818 0.00159003 0.00189584 
0.00116818 0.00159003 0.00189584 
0.00116818 0.00159003 0.00189584 
0.00138754 0.00138754 0.00138754 
0.00138754 0.00138754 0.00138754 
0.00116818 0.00159003 0.00189584 
0.00116818 0.00159003 0.00189584 
0.00116818 0.00159003 0.00189584 
0.00116818 0.00159003 0.00189584 
0.00116818 0.00159003 0.00189584 
0.00116818 0.00159003 0.00189584 
0.00138754 0.00138754 0.00138754 
0.00138754 0.00138754 0.00138754 
0.00138754 0.00138754 0.00138754 
0.00138754 0.00138754 0.00138754 
0.00138754 0.00138754 0.00138754 
0.00116818 0.00159003 0.00189584 
0.00116818 0.00159003 0.00189584 
0.00138754 0.00138754 0.00138754 
0.00116818 0.00159003 0.00189584 
0.00138754 0.00138754 0.00138754 
0.00138754 0.00138754 0.00138754 
0.00116818 0.00159003 0.00189584 
0.00138754 0.00138754 0.00138754 
0.00138754 0.00138754 0.00138754 
0.00116818 0.00159003 0.00189584 
0.00116818 0.00159003 0.00189584 
0.00116818 0.00159003 0.00189584 
0.00138754 0.00138754 0.00138754 
0.00138754 0.00138754 0.00138754 
0.00116818 0.00159003 0.00189584 
0.00116818 0.00159003 0.00189584 
0.00116818 0.00159003 0.00189584 
0.00116818 0.00159003 0.00189584 
0.00116818 0.00159003 0.00189584 
0.00116818 0.00159003 0.00189584 
0.00138754 0.00138754 0.00138754 
0.00138754 0.00138754 0.00138754 
0.00138754 0.00138754 0.00138754 
0.00138754 0.00138754 0.00138754 
0.00138754 0.00138754 0.00138754 
0.00116818 0.00159003 0.00189584 
0.00116818 0.00159003 0.00189584 
0.00138754 0.00138754 0.00138754 
0.00116818 0.00159003 0.00189584 
0.00138754 0.00138754 0.00138754 
0.00138754 0.00138754 0.00138754 
0.00116818 0.00159003 0.00189584 
0.00138754 0.00138754 0.00138754 
0.00138754 0.00138754 0.00138754 
0.00116818 0.00159003 0.00189584 
0.00116818 0.00159003 0.00189584 
0.00116818 0.00159003 0.00189584 
0.00138754 0.00138754 0.00138754 
0.00138754 0.00138754 0.00138754 
0.00116818 0.00159003 0.00189584 
0.00116818 0.00159003 0.00189584 
0.00116818 0.00159003 0.00189584 
0.00116818 0.00159003 0.00189584 
0.00116818 0.00159003 0.00189584 
0.00116818 0.00159003 0.00189584 
0.00138754 0.00138754 0.00138754 
0.00138754 0.00138754 0.00138754 
0.00138754 0.00138754 0.00138754 
0.00138754 0.00138754 0.00138754 
0.00138754 0.00138754 0.00138754 
0.00116818 0.00159003 0.00189584 
SCALARS mask int 1
LOOKUP_TABLE default
0
0
0
0
0
0
0
0
0
0
0
0
0
0
0
0
0
0
0
0
0
0
0
0
0
0
0
0
0
0
0
0
0
0
0
0
0
0
0
0
0
0
0
0
0
0
0
0
0
0
0
0
0
0
0
0
0
0
0
0
0
0
0
0
0
0
0
0
0
0
0
0
0
0
0
0
0
0
0
0
0
0
0
0
0
0
0
0
0
0
0
0
0
0
0
0
0
0
0
0
