# vtk DataFile Version 2.0
Generated by NetDEM
ASCII 
DATASET POLYDATA
POINTS 6 double
0 0 0 
0 0 0 
0 0 0 
0 0 0 
0 0 0 
0 0 0 
VERTICES 6 12
1 0
1 1
1 2
1 3
1 4
1 5
POINT_DATA 6
SCALARS id int 1
LOOKUP_TABLE default
0
1
2
3
4
5
SCALARS type int 1
LOOKUP_TABLE default
0
0
0
0
0
0
SCALARS quat double 4
LOOKUP_TABLE default
1 0 0 0 
1 0 0 0 
1 0 0 0 
1 0 0 0 
1 0 0 0 
1 0 0 0 
VECTORS vel double
0 0 0 
0 0 0 
0 0 0 
0 0 0 
0 0 0 
0 0 0 
VECTORS spin double
0 0 0 
0 0 0 
0 0 0 
0 0 0 
0 0 0 
0 0 0 
VECTORS force double
-936.446 -249.426 -479.005 
1057.3 1039.11 -1007.09 
489.109 -960.387 407.491 
-35.118 239.102 15.7118 
-284.031 -1989.54 -4625.15 
0 0 0 
VECTORS moment double
69.248 -144.164 321.107 
254.654 214.654 489.721 
-299.64 -119.073 103.123 
118.161 -24.7659 80.1207 
-1543.15 1765.47 -334.605 
0 0 0 
SCALARS shape_id int 1
LOOKUP_TABLE default
2
3
4
5
6
7
