# vtk DataFile Version 2.0
Generated by NetDEM
ASCII 
DATASET POLYDATA
POINTS 6 double
0 0 0 
0 0 0 
0 0 0 
0 0 0 
0 0 0 
0 0 0 
VERTICES 6 12
1 0
1 1
1 2
1 3
1 4
1 5
POINT_DATA 6
SCALARS id int 1
LOOKUP_TABLE default
0
1
2
3
4
5
SCALARS type int 1
LOOKUP_TABLE default
0
0
0
0
0
0
SCALARS quat double 4
LOOKUP_TABLE default
1 0 0 0 
1 0 0 0 
1 0 0 0 
1 0 0 0 
1 0 0 0 
1 0 0 0 
VECTORS vel double
0 0 0 
0 0 0 
0 0 0 
0 0 0 
0 0 0 
0 0 0 
VECTORS spin double
0 0 0 
0 0 0 
0 0 0 
0 0 0 
0 0 0 
0 0 0 
VECTORS force double
144.698 -82.0081 -257.18 
1074.27 464.728 734.079 
-97.0694 -504.597 -82.6297 
-102.995 6.17563 98.2708 
570.802 4.88111 -664.806 
0 0 0 
VECTORS moment double
-87.4215 -174.358 -15.9295 
-27.563 -716.431 329.098 
-52.0515 1.68894 -152.516 
53.2653 25.5328 13.9634 
94.1624 -143.637 -189.354 
0 0 0 
SCALARS shape_id int 1
LOOKUP_TABLE default
2
3
4
5
6
7
