# vtk DataFile Version 2.0
Generated by NetDEM
ASCII 
DATASET POLYDATA
POINTS 6 double
0 0 0 
0 0 0 
0 0 0 
0 0 0 
0 0 0 
0 0 0 
VERTICES 6 12
1 0
1 1
1 2
1 3
1 4
1 5
POINT_DATA 6
SCALARS id int 1
LOOKUP_TABLE default
0
1
2
3
4
5
SCALARS type int 1
LOOKUP_TABLE default
0
0
0
0
0
0
SCALARS quat double 4
LOOKUP_TABLE default
1 0 0 0 
1 0 0 0 
1 0 0 0 
1 0 0 0 
1 0 0 0 
1 0 0 0 
VECTORS vel double
0 0 0 
0 0 0 
0 0 0 
0 0 0 
0 0 0 
0 0 0 
VECTORS spin double
0 0 0 
0 0 0 
0 0 0 
0 0 0 
0 0 0 
0 0 0 
VECTORS force double
-459.853 -47.7011 172.184 
290.073 -380.637 139.707 
-72.3912 -229.097 -63.7441 
143.475 136.935 -232.208 
-1655.54 677.718 -6128.28 
0 0 0 
VECTORS moment double
17.3821 274.343 75.6457 
-47.6306 -240.042 -145.693 
-24.8683 37.0034 -6.59294 
-107.727 -68.8452 -111.448 
-11.6129 543.979 144.508 
0 0 0 
SCALARS shape_id int 1
LOOKUP_TABLE default
2
3
4
5
6
7
