# vtk DataFile Version 2.0
Generated by NetDEM
ASCII 
DATASET POLYDATA
POINTS 6 double
0 0 0 
0 0 0 
0 0 0 
0 0 0 
0 0 0 
0 0 0 
VERTICES 6 12
1 0
1 1
1 2
1 3
1 4
1 5
POINT_DATA 6
SCALARS id int 1
LOOKUP_TABLE default
0
1
2
3
4
5
SCALARS type int 1
LOOKUP_TABLE default
0
0
0
0
0
0
SCALARS quat double 4
LOOKUP_TABLE default
1 0 0 0 
1 0 0 0 
1 0 0 0 
1 0 0 0 
1 0 0 0 
1 0 0 0 
VECTORS vel double
0 0 0 
0 0 0 
0 0 0 
0 0 0 
0 0 0 
0 0 0 
VECTORS spin double
0 0 0 
0 0 0 
0 0 0 
0 0 0 
0 0 0 
0 0 0 
VECTORS force double
-505.838 -87.0338 -459.245 
-146.728 155.36 -445.282 
18.0652 -158.707 -28.9873 
-22.3217 99.5264 10.6252 
335.538 -293.816 -2446.37 
532.608 3421.55 9863.2 
VECTORS moment double
-103.352 -164.253 157.915 
-13.0754 281.685 105.465 
-18.0723 7.73714 -34.3949 
34.9611 26.5805 -2.63274 
-512.66 173.215 -217.818 
3024.44 2333.49 -1360.72 
SCALARS shape_id int 1
LOOKUP_TABLE default
2
3
4
5
6
7
