# vtk DataFile Version 2.0
Generated by NetDEM
ASCII 
DATASET POLYDATA
POINTS 6 double
0 0 0 
0 0 0 
0 0 0 
0 0 0 
0 0 0 
0 0 0 
VERTICES 6 12
1 0
1 1
1 2
1 3
1 4
1 5
POINT_DATA 6
SCALARS id int 1
LOOKUP_TABLE default
0
1
2
3
4
5
SCALARS type int 1
LOOKUP_TABLE default
0
0
0
0
0
0
SCALARS quat double 4
LOOKUP_TABLE default
1 0 0 0 
1 0 0 0 
1 0 0 0 
1 0 0 0 
1 0 0 0 
1 0 0 0 
VECTORS vel double
0 0 0 
0 0 0 
0 0 0 
0 0 0 
0 0 0 
0 0 0 
VECTORS spin double
0 0 0 
0 0 0 
0 0 0 
0 0 0 
0 0 0 
0 0 0 
VECTORS force double
-228.734 23.2926 -32.0888 
289.332 -445.094 559.807 
46.952 -671.33 -230.073 
306.16 210.004 62.6232 
-460.221 660.641 -3478.94 
0 0 0 
VECTORS moment double
-25.6004 44.6497 35.03 
-321.927 -372.559 -216.481 
-53.7552 32.1786 -67.7705 
66.2842 -65.5946 -160.571 
507.956 340.629 -278.845 
0 0 0 
SCALARS shape_id int 1
LOOKUP_TABLE default
2
3
4
5
6
7
