# vtk DataFile Version 2.0
Generated by NetDEM
ASCII 
DATASET POLYDATA
POINTS 6 double
0 0 0 
0 0 0 
0 0 0 
0 0 0 
0 0 0 
0 0 0 
VERTICES 6 12
1 0
1 1
1 2
1 3
1 4
1 5
POINT_DATA 6
SCALARS id int 1
LOOKUP_TABLE default
0
1
2
3
4
5
SCALARS type int 1
LOOKUP_TABLE default
0
0
0
0
0
0
SCALARS quat double 4
LOOKUP_TABLE default
1 0 0 0 
1 0 0 0 
1 0 0 0 
1 0 0 0 
1 0 0 0 
1 0 0 0 
VECTORS vel double
0 0 0 
0 0 0 
0 0 0 
0 0 0 
0 0 0 
0 0 0 
VECTORS spin double
0 0 0 
0 0 0 
0 0 0 
0 0 0 
0 0 0 
0 0 0 
VECTORS force double
-1123.09 20.9133 -728.674 
0 0 0 
8.47742 -76.341 -90.4575 
-0.947513 -58.7504 16.5606 
16.9957 -513.339 -134711 
-0.256994 -12.7513 145795 
VECTORS moment double
-142.742 -479.76 206.235 
0 0 0 
21.4963 0.320051 1.74446 
-13.3713 1.07458 3.49253 
13724.9 -7821.17 -191.335 
-13599 1166.78 -5.05668 
SCALARS shape_id int 1
LOOKUP_TABLE default
2
3
4
5
6
7
