# vtk DataFile Version 2.0
Generated by NetDEM
ASCII 
DATASET POLYDATA
POINTS 6 double
0 0 0 
0 0 0 
0 0 0 
0 0 0 
0 0 0 
0 0 0 
VERTICES 6 12
1 0
1 1
1 2
1 3
1 4
1 5
POINT_DATA 6
SCALARS id int 1
LOOKUP_TABLE default
0
1
2
3
4
5
SCALARS type int 1
LOOKUP_TABLE default
0
0
0
0
0
0
SCALARS quat double 4
LOOKUP_TABLE default
1 0 0 0 
1 0 0 0 
1 0 0 0 
1 0 0 0 
1 0 0 0 
1 0 0 0 
VECTORS vel double
0 0 0 
0 0 0 
0 0 0 
0 0 0 
0 0 0 
0 0 0 
VECTORS spin double
0 0 0 
0 0 0 
0 0 0 
0 0 0 
0 0 0 
0 0 0 
VECTORS force double
-390.25 124.45 339.994 
392.772 504.252 -258.789 
448.371 -373.963 115.462 
117.295 -171.754 49.7551 
-646.535 -458.942 -7102.96 
0 0 0 
VECTORS moment double
-276.969 277.501 -37.7088 
412.084 -3.55015 128.28 
-79.6101 -298.913 83.1747 
-44.7818 -52.1977 -55.7008 
240.542 1113.68 -366.535 
0 0 0 
SCALARS shape_id int 1
LOOKUP_TABLE default
2
3
4
5
6
7
