# vtk DataFile Version 2.0
Generated by NetDEM
ASCII 
DATASET POLYDATA
POINTS 6 double
0 0 0 
0 0 0 
0 0 0 
0 0 0 
0 0 0 
0 0 0 
VERTICES 6 12
1 0
1 1
1 2
1 3
1 4
1 5
POINT_DATA 6
SCALARS id int 1
LOOKUP_TABLE default
0
1
2
3
4
5
SCALARS type int 1
LOOKUP_TABLE default
0
0
0
0
0
0
SCALARS quat double 4
LOOKUP_TABLE default
1 0 0 0 
1 0 0 0 
1 0 0 0 
1 0 0 0 
1 0 0 0 
1 0 0 0 
VECTORS vel double
0 0 0 
0 0 0 
0 0 0 
0 0 0 
0 0 0 
0 0 0 
VECTORS spin double
0 0 0 
0 0 0 
0 0 0 
0 0 0 
0 0 0 
0 0 0 
VECTORS force double
0 0 0 
-1.93529 -1.11755 -18.29 
-0.817885 7.46551 3.15054 
-42.0869 101.861 -35.0713 
207.777 123.211 -268284 
-854.125 847.523 244983 
VECTORS moment double
0 0 0 
-2.91833 8.08311 -4.31983 
1.13482 -0.954295 2.55589 
18.6724 39.5245 40.6154 
11681.4 -54163.8 -112.476 
-10405.7 50099.8 -694.635 
SCALARS shape_id int 1
LOOKUP_TABLE default
2
3
4
5
6
7
