# vtk DataFile Version 2.0
Generated by NetDEM
ASCII 
DATASET POLYDATA
POINTS 388 double
-0.403333 -0.203333 -0.471867 
-0.403333 -0.203333 -0.393724 
-0.408427 -0.00751717 -0.462921 
-0.398366 -0.00784539 -0.386762 
-0.402763 0.397237 -0.471867 
-0.402763 0.397237 -0.393723 
-0.203538 -0.203538 -0.471867 
-0.203538 -0.203538 -0.393723 
-0.203218 -0.00321788 -0.471865 
-0.203218 -0.00321788 -0.393721 
-0.169445 0.201011 -0.46243 
-0.172607 0.190373 -0.381846 
-0.246887 0.369134 -0.46505 
-0.157562 0.419433 -0.446691 
-0.0428846 -0.399467 -0.458032 
-0.0625243 -0.40284 -0.383725 
-0.00366947 -0.203669 -0.471867 
-0.00366947 -0.203669 -0.393723 
-0.00360232 -0.00360232 -0.471867 
-0.00360232 -0.00360232 -0.393723 
-0.0418965 0.396538 -0.463922 
-0.101687 0.444672 -0.369054 
0.314136 0.417716 -0.399733 
0.370161 0.43892 -0.464899 
0.314136 0.417716 -0.399733 
0.399277 0.453618 -0.334094 
0.401434 -0.400685 -0.450032 
0.401365 -0.349592 -0.36409 
0.401434 -0.400685 -0.450032 
0.398097 -0.450006 -0.363118 
0.35481 -0.0172841 -0.450008 
0.38612 -0.080324 -0.378982 
0.38497 0.0926762 -0.450009 
0.421598 0.0351449 -0.376878 
-0.404422 -0.399831 -0.386097 
-0.30646 -0.409108 -0.390187 
-0.403333 -0.203333 -0.393724 
-0.403333 -0.203333 -0.315526 
-0.398366 -0.00784539 -0.386762 
-0.362805 0.00809699 -0.313874 
-0.402763 0.397237 -0.393723 
-0.402763 0.397237 -0.315524 
-0.30646 -0.409108 -0.390187 
-0.242783 -0.402957 -0.334239 
-0.203538 -0.203538 -0.393723 
-0.203538 -0.203538 -0.315524 
-0.203218 -0.00321788 -0.393721 
-0.203218 -0.00321788 -0.315522 
-0.157562 0.419433 -0.446691 
-0.215439 0.453663 -0.38999 
-0.0625243 -0.40284 -0.383725 
-0.149542 -0.432302 -0.378851 
-0.0625243 -0.40284 -0.383725 
0.0274772 -0.43012 -0.348913 
-0.0625243 -0.40284 -0.383725 
-0.0590926 -0.354887 -0.298561 
-0.00366947 -0.203669 -0.393723 
-0.00366947 -0.203669 -0.315525 
-0.00360232 -0.00360232 -0.393723 
-0.00360232 -0.00360232 -0.315525 
0.00591107 0.257121 -0.446519 
0.0481239 0.346705 -0.44147 
0.00591107 0.257121 -0.446519 
-0.0401662 0.259124 -0.368055 
0.00591107 0.257121 -0.446519 
0.0743076 0.239252 -0.365711 
0.197437 0.112352 -0.455696 
0.255002 0.175997 -0.42814 
0.306069 0.423796 -0.282183 
0.399277 0.453618 -0.334094 
0.401365 -0.349592 -0.36409 
0.381384 -0.323262 -0.26972 
0.316425 -0.160975 -0.450024 
0.400609 -0.203001 -0.416195 
-0.403333 -0.203333 -0.315526 
-0.403333 -0.203333 -0.237253 
-0.362805 0.00809699 -0.313874 
-0.346121 0.0260245 -0.241067 
-0.402763 0.397237 -0.315524 
-0.402763 0.397237 -0.237251 
-0.180332 -0.367416 -0.453963 
-0.149542 -0.432302 -0.378851 
-0.203538 -0.203538 -0.315524 
-0.203538 -0.203538 -0.237252 
-0.203218 -0.00321788 -0.315522 
-0.203218 -0.00321788 -0.237249 
-0.172607 0.190373 -0.381846 
-0.135446 0.142639 -0.292279 
-0.215439 0.453663 -0.38999 
-0.289933 0.44468 -0.333634 
0.0274772 -0.43012 -0.348913 
0.0377855 -0.37194 -0.277198 
-0.00366947 -0.203669 -0.315525 
-0.00366947 -0.203669 -0.237252 
-0.00360232 -0.00360232 -0.315525 
-0.00360232 -0.00360232 -0.237252 
-0.0401662 0.259124 -0.368055 
-0.0437393 0.346916 -0.295442 
-0.0401662 0.259124 -0.368055 
-0.0310249 0.213209 -0.300192 
0.400609 -0.203001 -0.416195 
0.449724 -0.212557 -0.329622 
0.449251 0.234957 -0.361593 
0.438971 0.259831 -0.456986 
-0.403333 -0.203333 -0.237253 
-0.403333 -0.203333 -0.158893 
-0.346121 0.0260245 -0.241067 
-0.380729 0.00343616 -0.161037 
-0.402763 0.397237 -0.237251 
-0.402763 0.397237 -0.158891 
-0.149542 -0.432302 -0.378851 
-0.242783 -0.402957 -0.334239 
-0.149542 -0.432302 -0.378851 
-0.161555 -0.416547 -0.283177 
-0.203538 -0.203538 -0.237252 
-0.203538 -0.203538 -0.158891 
-0.203218 -0.00321788 -0.237249 
-0.203218 -0.00321788 -0.158888 
-0.00366947 -0.203669 -0.237252 
-0.00366947 -0.203669 -0.158891 
-0.00360232 -0.00360232 -0.237252 
-0.00360232 -0.00360232 -0.158892 
0.255002 0.175997 -0.42814 
0.214177 0.217441 -0.362763 
0.381384 -0.323262 -0.26972 
0.396202 -0.250029 -0.203263 
-0.403333 -0.203333 -0.158893 
-0.403333 -0.203333 -0.0804382 
-0.402763 0.397237 -0.158891 
-0.402763 0.397237 -0.0804359 
-0.242783 -0.402957 -0.334239 
-0.161555 -0.416547 -0.283177 
-0.203538 -0.203538 -0.158891 
-0.203538 -0.203538 -0.0804362 
-0.203218 -0.00321788 -0.158888 
-0.203218 -0.00321788 -0.080433 
-0.00366947 -0.203669 -0.158891 
-0.00366946 -0.203669 -0.0804335 
-0.00360232 -0.00360232 -0.158892 
-0.00360232 -0.00360232 -0.0804365 
-0.0310249 0.213209 -0.300192 
0.0155712 0.20164 -0.235188 
-0.0310249 0.213209 -0.300192 
-0.105365 0.179664 -0.219841 
0.214177 0.217441 -0.362763 
0.202763 0.180863 -0.289848 
0.366255 0.449928 -0.195915 
0.397527 0.434459 -0.108906 
0.366255 0.449928 -0.195915 
0.430014 0.410072 -0.263231 
0.399277 0.453618 -0.334094 
0.430014 0.410072 -0.263231 
-0.403333 -0.203333 -0.0804382 
-0.403333 -0.203333 -0.00188675 
-0.228839 0.207805 -0.18478 
-0.126726 0.255476 -0.164026 
-0.402763 0.397237 -0.0804359 
-0.402763 0.397237 -0.00188446 
-0.161555 -0.416547 -0.283177 
-0.123623 -0.394916 -0.19627 
-0.203538 -0.203538 -0.0804362 
-0.203538 -0.203538 -0.00188469 
-0.203218 -0.00321788 -0.080433 
-0.203218 -0.00321788 -0.00188158 
-0.105365 0.179664 -0.219841 
-0.126726 0.255476 -0.164026 
-0.0590926 -0.354887 -0.298561 
-0.0279917 -0.385741 -0.208418 
-0.00366946 -0.203669 -0.0804335 
-0.00366945 -0.203669 -0.00187688 
-0.00360232 -0.00360232 -0.0804365 
-0.00360232 -0.00360232 -0.00188501 
0.0155712 0.20164 -0.235188 
0.0303252 0.190909 -0.163715 
0.430014 0.410072 -0.263231 
0.444467 0.384113 -0.16615 
-0.403333 -0.203333 -0.00188675 
-0.403333 -0.203333 0.0767577 
-0.402763 0.397237 -0.00188446 
-0.402763 0.397237 0.0767599 
-0.203538 -0.203538 -0.00188469 
-0.203538 -0.203538 0.0767597 
-0.203218 -0.00321788 -0.00188158 
-0.203218 -0.00321788 0.0767626 
-0.210381 0.402583 -0.249865 
-0.176092 0.424421 -0.169378 
-0.00366945 -0.203669 -0.00187688 
-0.00367034 -0.203669 0.0767782 
-0.00360232 -0.00360232 -0.00188501 
-0.00360232 -0.00360232 0.0767594 
0.0303252 0.190909 -0.163715 
-0.042433 0.228415 -0.0982596 
0.157962 -0.422933 -0.0216197 
0.161858 -0.416789 0.0803196 
0.202763 0.180863 -0.289848 
0.208247 0.141302 -0.218399 
0.444467 0.384113 -0.16615 
0.397527 0.434459 -0.108906 
-0.403333 -0.203333 0.0767577 
-0.403333 -0.203333 0.155488 
-0.402763 0.397237 0.0767599 
-0.402763 0.397237 0.15549 
-0.203538 -0.203538 0.0767597 
-0.203538 -0.203538 0.15549 
-0.203218 -0.00321788 0.0767626 
-0.203218 -0.00321788 0.155492 
-0.176092 0.424421 -0.169378 
-0.211454 0.398526 -0.105484 
-0.00367034 -0.203669 0.0767782 
-0.00366959 -0.20367 0.155526 
-0.00360232 -0.00360232 0.0767594 
-0.00360232 -0.00360232 0.155489 
0.19757 -0.0120701 0.0693634 
0.19578 -0.020595 0.142799 
0.208247 0.141302 -0.218399 
0.18387 0.203699 -0.163501 
0.397527 0.434459 -0.108906 
0.398634 0.399424 -0.04026 
-0.333076 -0.385122 0.153233 
-0.32529 -0.373924 0.22702 
-0.403333 -0.203333 0.155488 
-0.403333 -0.203333 0.234293 
-0.402763 0.397237 0.15549 
-0.402763 0.397237 0.234295 
-0.203538 -0.203538 0.15549 
-0.203538 -0.203538 0.234295 
-0.203218 -0.00321788 0.155492 
-0.203218 -0.00321788 0.234297 
-0.211454 0.398526 -0.105484 
-0.205101 0.384491 -0.0146414 
-0.00366959 -0.20367 0.155526 
-0.00357903 -0.203713 0.234359 
-0.00360232 -0.00360232 0.155489 
-0.00360232 -0.00360232 0.234295 
0.19578 -0.020595 0.142799 
0.194475 -0.0151847 0.224899 
0.398634 0.399424 -0.04026 
0.395107 0.396501 0.0438745 
-0.403333 -0.203333 0.471037 
-0.403333 -0.203333 0.392082 
-0.402763 0.397237 0.471037 
-0.402763 0.397237 0.392083 
-0.203538 -0.203538 0.471037 
-0.203538 -0.203538 0.392083 
-0.203218 -0.00321788 0.471038 
-0.203218 -0.00321788 0.392084 
-0.205101 0.384491 -0.0146414 
-0.202281 0.403153 0.060942 
-0.00398837 -0.203585 0.471099 
-0.00487663 -0.203252 0.392209 
-0.00360232 -0.00360232 0.471037 
-0.00360232 -0.00360232 0.392082 
0.395107 0.396501 0.0438745 
0.397901 0.390976 0.140761 
-0.403333 -0.203333 0.234293 
-0.403333 -0.203333 0.313163 
-0.402763 0.397237 0.234295 
-0.402763 0.397237 0.313164 
-0.207361 -0.403167 0.102799 
-0.201337 -0.402867 0.220511 
-0.203538 -0.203538 0.234295 
-0.203538 -0.203538 0.313164 
-0.203218 -0.00321788 0.234297 
-0.203218 -0.00321788 0.313166 
-0.202281 0.403153 0.060942 
-0.201961 0.393705 0.15362 
-0.00357903 -0.203713 0.234359 
-0.00407114 -0.203475 0.313262 
-0.00360232 -0.00360232 0.234295 
-0.00360232 -0.00360232 0.313164 
0.189629 0.000769094 0.295932 
0.171811 0.00142412 0.36759 
-0.451741 -0.450338 0.320948 
-0.444894 -0.403738 0.417889 
-0.403333 -0.203333 0.313163 
-0.403333 -0.203333 0.392082 
-0.402763 0.397237 0.313164 
-0.402763 0.397237 0.392083 
-0.203538 -0.203538 0.313164 
-0.203538 -0.203538 0.392083 
-0.203218 -0.00321788 0.313166 
-0.203218 -0.00321788 0.392084 
-0.00612714 -0.408919 0.212993 
-0.00291962 -0.402923 0.31317 
-0.00407114 -0.203475 0.313262 
-0.00487663 -0.203252 0.392209 
-0.00360232 -0.00360232 0.313164 
-0.00360232 -0.00360232 0.392082 
-0.00487663 -0.203252 0.392209 
0.0858503 -0.183997 0.342351 
-0.444894 -0.403738 0.417889 
-0.5 -0.413138 0.422235 
-0.451741 -0.450338 0.320948 
-0.50002 -0.441452 0.32531 
0.438971 0.259831 -0.456986 
0.500002 0.24146 -0.456464 
0.398097 -0.450006 -0.363118 
0.398093 -0.5 -0.363118 
0.0375159 0.451192 -0.440937 
0.0385219 0.500011 -0.439958 
-0.101687 0.444672 -0.369054 
-0.0977851 0.5 -0.344436 
0.399277 0.453618 -0.334094 
0.411146 0.500012 -0.355533 
-0.215439 0.453663 -0.38999 
-0.221664 0.500004 -0.38582 
-0.203218 -0.00321788 -0.471865 
-0.203218 -0.00321788 -0.5 
0.173566 -0.00952741 -0.461948 
0.201342 0.0064575 -0.500002 
0.401434 -0.400685 -0.450032 
0.401424 -0.400685 -0.5 
0.38497 0.0926762 -0.450009 
0.384972 0.0926669 -0.5 
-0.00360232 -0.00360232 -0.471867 
-0.00360232 -0.00360232 -0.5 
-0.449953 0.147888 -0.450007 
-0.449953 0.147909 -0.5 
-0.408427 -0.00751717 -0.462921 
-0.39505 -0.00931383 -0.500023 
0.00591107 0.257121 -0.446519 
-0.0221658 0.225226 -0.500075 
0.191867 -0.399591 -0.463148 
0.205986 -0.401149 -0.500003 
-0.157562 0.419433 -0.446691 
-0.13609 0.406113 -0.500007 
-0.0418965 0.396538 -0.463922 
-0.0541306 0.404021 -0.500006 
-0.246887 0.369134 -0.46505 
-0.237113 0.368317 -0.500004 
0.316425 -0.160975 -0.450024 
0.316448 -0.160956 -0.5 
0.424682 0.344535 -0.453892 
0.454679 0.349848 -0.500003 
-0.180332 -0.367416 -0.453963 
-0.178426 -0.390764 -0.500018 
-0.0428846 -0.399467 -0.458032 
-0.0341427 -0.386379 -0.500028 
-0.301664 0.160801 -0.465044 
-0.310627 0.160211 -0.500003 
0.438971 0.259831 -0.456986 
0.399368 0.279938 -0.500006 
0.0481239 0.346705 -0.44147 
0.0555098 0.347415 -0.500004 
-0.402763 0.397237 -0.471867 
-0.402763 0.397237 -0.5 
-0.203538 -0.203538 -0.471867 
-0.203538 -0.203538 -0.5 
-0.00366947 -0.203669 -0.471867 
-0.00366947 -0.203669 -0.5 
-0.169445 0.201011 -0.46243 
-0.182635 0.214067 -0.500008 
0.274645 0.066273 -0.443498 
0.294867 0.0528664 -0.500003 
0.0315027 0.188087 -0.453463 
0.0227184 0.189619 -0.500003 
0.159354 0.210264 -0.465044 
0.174224 0.19755 -0.500001 
0.197437 0.112352 -0.455696 
0.219744 0.13487 -0.500019 
0.170944 -0.207738 -0.462541 
0.165788 -0.175408 -0.500002 
0.23754 0.351789 -0.458502 
0.236635 0.370777 -0.500005 
0.370161 0.43892 -0.464899 
0.349841 0.447341 -0.500003 
-0.403333 -0.203333 -0.471867 
-0.403333 -0.203333 -0.5 
0.407158 -0.297038 -0.450007 
0.407157 -0.297036 -0.5 
-0.26452 -0.430952 -0.458933 
-0.260736 -0.419195 -0.500006 
0.35481 -0.0172841 -0.450008 
0.354832 -0.0172982 -0.5 
-0.203218 -0.00321788 0.471038 
-0.203218 -0.00321788 0.5 
-0.403333 -0.203333 0.471037 
-0.403333 -0.203333 0.5 
-0.402763 0.397237 0.471037 
-0.402763 0.397237 0.5 
-0.203538 -0.203538 0.471037 
-0.203538 -0.203538 0.5 
-0.204409 0.189775 0.45211 
-0.190305 0.20863 0.500007 
-0.00398837 -0.203585 0.471099 
-0.00396585 -0.203589 0.5 
-0.00360232 -0.00360232 0.471037 
-0.00360232 -0.00360232 0.5 
LINES 194 582
2 0 1
2 2 3
2 4 5
2 6 7
2 8 9
2 10 11
2 12 13
2 14 15
2 16 17
2 18 19
2 20 21
2 22 23
2 24 25
2 26 27
2 28 29
2 30 31
2 32 33
2 34 35
2 36 37
2 38 39
2 40 41
2 42 43
2 44 45
2 46 47
2 48 49
2 50 51
2 52 53
2 54 55
2 56 57
2 58 59
2 60 61
2 62 63
2 64 65
2 66 67
2 68 69
2 70 71
2 72 73
2 74 75
2 76 77
2 78 79
2 80 81
2 82 83
2 84 85
2 86 87
2 88 89
2 90 91
2 92 93
2 94 95
2 96 97
2 98 99
2 100 101
2 102 103
2 104 105
2 106 107
2 108 109
2 110 111
2 112 113
2 114 115
2 116 117
2 118 119
2 120 121
2 122 123
2 124 125
2 126 127
2 128 129
2 130 131
2 132 133
2 134 135
2 136 137
2 138 139
2 140 141
2 142 143
2 144 145
2 146 147
2 148 149
2 150 151
2 152 153
2 154 155
2 156 157
2 158 159
2 160 161
2 162 163
2 164 165
2 166 167
2 168 169
2 170 171
2 172 173
2 174 175
2 176 177
2 178 179
2 180 181
2 182 183
2 184 185
2 186 187
2 188 189
2 190 191
2 192 193
2 194 195
2 196 197
2 198 199
2 200 201
2 202 203
2 204 205
2 206 207
2 208 209
2 210 211
2 212 213
2 214 215
2 216 217
2 218 219
2 220 221
2 222 223
2 224 225
2 226 227
2 228 229
2 230 231
2 232 233
2 234 235
2 236 237
2 238 239
2 240 241
2 242 243
2 244 245
2 246 247
2 248 249
2 250 251
2 252 253
2 254 255
2 256 257
2 258 259
2 260 261
2 262 263
2 264 265
2 266 267
2 268 269
2 270 271
2 272 273
2 274 275
2 276 277
2 278 279
2 280 281
2 282 283
2 284 285
2 286 287
2 288 289
2 290 291
2 292 293
2 294 295
2 296 297
2 298 299
2 300 301
2 302 303
2 304 305
2 306 307
2 308 309
2 310 311
2 312 313
2 314 315
2 316 317
2 318 319
2 320 321
2 322 323
2 324 325
2 326 327
2 328 329
2 330 331
2 332 333
2 334 335
2 336 337
2 338 339
2 340 341
2 342 343
2 344 345
2 346 347
2 348 349
2 350 351
2 352 353
2 354 355
2 356 357
2 358 359
2 360 361
2 362 363
2 364 365
2 366 367
2 368 369
2 370 371
2 372 373
2 374 375
2 376 377
2 378 379
2 380 381
2 382 383
2 384 385
2 386 387
POINT_DATA 388
SCALARS id int 1
LOOKUP_TABLE default
1
26
2
27
4
29
6
31
7
32
8
58
9
34
10
35
11
36
12
37
14
114
19
24
19
124
20
46
20
45
22
72
23
122
25
30
26
51
27
52
29
54
30
105
31
56
32
57
34
59
35
80
35
60
35
135
36
61
37
62
38
39
38
63
38
69
43
93
44
124
46
95
47
71
51
76
52
77
54
79
55
80
56
81
57
82
58
108
59
84
60
110
61
86
62
87
63
164
63
113
71
121
73
74
76
101
77
102
79
104
80
105
80
130
81
106
82
107
86
111
87
112
93
118
95
170
101
126
104
129
105
130
106
131
107
132
111
136
112
137
113
138
113
133
118
168
119
199
119
149
124
149
126
151
128
158
129
154
130
155
131
156
132
157
133
158
135
160
136
161
137
162
138
163
149
174
151
176
154
179
156
181
157
182
159
184
161
186
162
187
163
188
165
190
168
193
174
199
176
201
179
204
181
206
182
207
184
209
186
211
187
212
192
217
193
218
199
224
200
225
201
251
204
254
206
256
207
257
209
234
211
261
212
262
217
242
224
249
226
301
229
304
231
306
232
307
234
259
236
311
237
312
249
274
251
276
254
279
255
280
256
281
257
282
259
284
261
286
262
287
267
292
275
300
276
301
279
304
281
306
282
307
285
310
286
311
287
312
311
316
300
0
275
0
74
1
45
2
89
3
114
3
124
3
59
3
7
4
17
4
20
4
23
4
12
4
3
4
2
4
38
4
15
4
34
4
14
4
9
4
47
4
49
4
55
4
10
4
33
4
74
4
39
4
4
4
6
4
11
4
8
4
68
4
13
4
18
4
43
4
16
4
64
4
24
4
1
4
21
4
5
4
22
4
232
5
226
5
229
5
231
5
308
5
236
5
237
5
CELL_DATA 194
VECTORS force double
0 0 -43720.1 
-8.63514 -8.8013 -73.9816 
0 0 -43717.3 
0 0 -43718.8 
0 0 -43719.4 
-4.56855 7.95462 -32.1346 
-6.62703 -6.53014 -10.1204 
10.0102 16.1265 -65.019 
-5.71806e-09 4.0729e-09 -43719 
0 0 -43719 
1.72373 -0.838191 -9.41945 
3.29027 4.54798 25.2847 
4.65242 2.69363 -48.1976 
0.575189 -13.8318 -27.6166 
0.403364 11.8815 -17.2401 
-1.42545 14.7064 -37.4456 
-0.406332 0.74981 -2.50545 
3.08251 2.45771 -56.9591 
0 0 -43608.9 
-3.12426 1.24763 -46.1433 
0 0 -43606.6 
-80.7982 2.59984 -57.0196 
0 0 -43607.8 
0 0 -43608.1 
-2.37078 -33.7584 -19.175 
12.1557 -2.98697 -15.0691 
-9.61581 6.6964 -24.8184 
5.85557 0.544787 -1.29591 
-2.73468e-07 1.75072e-07 -43607.6 
0 0 -43607.9 
-47.2208 -90.6303 32.6281 
33.494 34.0626 -261.751 
16.3733 62.2375 -3.80287 
6.49473 -25.8021 -100.714 
-4.85278 -2.90031 19.3481 
1.93955 -6.70432 -15.2181 
-7.58435 3.26976 -13.5593 
0 0 -43459.6 
-0.199366 3.36492 -29.1571 
0 0 -43457.8 
3.55342 5.13042 -54.1252 
0 0 -43458.7 
0 0 -43458.7 
-2.00416 6.55017 -12.3768 
3.6027 -0.871548 -6.19442 
-3.24065 1.80008 -6.27851 
1.33552e-05 -8.86008e-06 -43457.4 
0 0 -43458.8 
3.18119 -21.4855 -31.467 
46.7152 43.7759 -199.285 
-6.57849 1.99343 -4.58152 
2.09579 -3.23611 15.6526 
0 0 -43283.1 
1.00441 -0.138789 -12.8724 
0 0 -43282.1 
6.87293 7.47641 -34.5639 
5.0228 -7.54164 -9.43591 
0 0 -43282.5 
0 0 -43282.3 
-9.88331e-05 6.16486e-05 -43278.6 
0 0 -43282.6 
17.2975 -10.3768 -166.037 
-0.0246559 -3.55183 -5.63057 
0 0 -43091.8 
0 0 -43091.5 
-90.8715 -3.17729 -59.2908 
0 0 -43091.5 
0 0 -43091.1 
-0.00331316 0.00226431 -43081.3 
0 0 -43091.5 
-24.8817 18.5803 -22.1321 
155.123 12.5425 -154.38 
3.99505 43.4868 -180.601 
5.29774 -72.9716 -13.1611 
1.91683 -9.39967 30.4259 
-8.45887 23.7714 -37.9028 
0 0 -42897.1 
-93.9136 2.41038 46.1623 
0 0 -42897.4 
-37.0711 -2.2499 -40.5407 
0 0 -42897.1 
0 0 -42896.6 
120.213 -29.4152 -107.309 
12.4234 -6.34243 21.4427 
0.0551323 -0.0372854 -42875.1 
0 0 -42897.1 
2.78472 1.04979 1.40231 
-9.33734 0.483826 -30.9931 
0 0 -42709.2 
0 0 -42710 
0 0 -42709.4 
0 0 -42709 
-0.739218 3.45155 -20.3251 
0.383822 -0.131488 -42668.9 
0 0 -42709.4 
-1.10327 1.60662 6.23771 
0.0809037 -0.0840167 -1.19869 
24.1297 14.3224 -112.371 
-28.8 53.2509 -54.0978 
0 0 -42536 
0 0 -42537.2 
0 0 -42536.5 
0 0 -42536.2 
2.78471 0.281903 -29.4543 
-7.77308 4.08533 -42480.4 
0 0 -42536.5 
-2.12994 -0.341816 -8.25096 
31.1411 -2.6783 -50.4577 
-4.07151 39.2753 -39.338 
22.9592 41.3037 -14.8245 
0 0 -42383.5 
0 0 -42384.9 
0 0 -42384.2 
0 0 -42384 
3.35712 2.95076 -33.7863 
4.05573 -4.77799 -42336.2 
0 0 -42384.1 
2.00907 0.268161 -10.1489 
13.2719 6.37897 -139.265 
0 0 42082.2 
0 0 42084 
0 0 42083.3 
0 0 42083.6 
-0.383052 -1.80669 -29.4085 
202.629 -89.1957 42180.1 
0 0 42083.1 
7.99505 -77.5548 -435.071 
0 0 -42255.5 
0 0 -42257.1 
0.869689 0.125003 20.2226 
0 0 -42256.3 
0 0 -42256.4 
1.85 -1.62492 -26.8838 
254.399 -99.6455 -42183.9 
0 0 -42256.2 
-1.29606 -0.532077 -0.0596834 
-152.545 -75.3095 -147.082 
0 0 -42154.5 
0 0 -42156.3 
0 0 -42155.6 
0 0 -42155.7 
-138.043 268.258 -2306.86 
227.761 -74.8396 -42127.4 
0 0 -42155.4 
183.745 -6.71185 -29.6254 
-290.945 -5.42866 51.7805 
163.745 104.492 199.21 
-7.75991 1.3224 6.82726 
0.262748 12.8332 -2.76407 
-2.05248 -24.4609 4.60249 
0.837745 -0.824164 3.52382 
1.49861 -32.4342 37.9904 
6.05738 -14.4992 -6.76497 
0 0 43783.7 
-3.89996 -2.27437 9.66324 
-0.107974 3.57674 58.8704 
0.519131 -0.757551 15.2237 
0 0 43783.3 
-4.4406e-11 4.5893e-11 13.6117 
10.4593 9.03304 90.3226 
27.1874 27.5391 274.758 
-2.89793 0.344077 13.1169 
-20.145 11.4505 26.1545 
-0.687295 0.293115 22.5746 
7.39972 7.01601 24.5696 
9.03531 -4.75484 34.6553 
-4.18376 -0.508685 10.3987 
-0.888953 -6.67099 73.1895 
-9.6409 -18.148 88.2891 
-0.045202 1.59757 13.1438 
10.2038 -7.85833 22.72 
-7.7106 -23.6483 33.7758 
0 0 43781.4 
0 0 43783.1 
-1.79777e-11 -3.89125e-12 43783.4 
7.23482 -7.29421 47.708 
-2.77486 1.7316 11.2196 
1.58185 -0.37354 13.2783 
1.24595 -0.855401 14.3471 
-8.58239 30.8923 112.342 
0.698044 -4.47494 9.49253 
0.0438009 0.433829 0.206968 
-2.63563 -3.08788 25.9179 
0 0 43784.4 
-7.60134e-13 3.86912e-11 13.6117 
1.26973 -1.82106 5.94047 
11.6151 -20.3081 33.32 
0 0 -42040.6 
0 0 -42039 
0 0 -42041 
0 0 -42040.2 
31.1375 43.4068 129.031 
-236.002 88.6393 -42193.9 
0 0 -42040.1 
VECTORS moment double
0 0 0 
0 0 0 
0 0 0 
0 0 0 
0 0 0 
0 0 0 
0 0 0 
0 0 0 
0 0 0 
0 0 0 
0 0 0 
0 0 0 
0 0 0 
0 0 0 
0 0 0 
0 0 0 
0 0 0 
0 0 0 
0 0 0 
0 0 0 
0 0 0 
0 0 0 
0 0 0 
0 0 0 
0 0 0 
0 0 0 
0 0 0 
0 0 0 
0 0 0 
0 0 0 
0 0 0 
0 0 0 
0 0 0 
0 0 0 
0 0 0 
0 0 0 
0 0 0 
0 0 0 
0 0 0 
0 0 0 
0 0 0 
0 0 0 
0 0 0 
0 0 0 
0 0 0 
0 0 0 
0 0 0 
0 0 0 
0 0 0 
0 0 0 
0 0 0 
0 0 0 
0 0 0 
0 0 0 
0 0 0 
0 0 0 
0 0 0 
0 0 0 
0 0 0 
0 0 0 
0 0 0 
0 0 0 
0 0 0 
0 0 0 
0 0 0 
0 0 0 
0 0 0 
0 0 0 
0 0 0 
0 0 0 
0 0 0 
0 0 0 
0 0 0 
0 0 0 
0 0 0 
0 0 0 
0 0 0 
0 0 0 
0 0 0 
0 0 0 
0 0 0 
0 0 0 
0 0 0 
0 0 0 
0 0 0 
0 0 0 
0 0 0 
0 0 0 
0 0 0 
0 0 0 
0 0 0 
0 0 0 
0 0 0 
0 0 0 
0 0 0 
0 0 0 
0 0 0 
0 0 0 
0 0 0 
0 0 0 
0 0 0 
0 0 0 
0 0 0 
0 0 0 
0 0 0 
0 0 0 
0 0 0 
0 0 0 
0 0 0 
0 0 0 
0 0 0 
0 0 0 
0 0 0 
0 0 0 
0 0 0 
0 0 0 
0 0 0 
0 0 0 
0 0 0 
0 0 0 
0 0 0 
0 0 0 
0 0 0 
0 0 0 
0 0 0 
0 0 0 
0 0 0 
0 0 0 
0 0 0 
0 0 0 
0 0 0 
0 0 0 
0 0 0 
0 0 0 
0 0 0 
0 0 0 
0 0 0 
0 0 0 
0 0 0 
0 0 0 
0 0 0 
0 0 0 
0 0 0 
0 0 0 
0 0 0 
0 0 0 
0 0 0 
0 0 0 
0 0 0 
0 0 0 
0 0 0 
0 0 0 
0 0 0 
0 0 0 
0 0 0 
0 0 0 
0 0 0 
0 0 0 
0 0 0 
0 0 0 
0 0 0 
0 0 0 
0 0 0 
0 0 0 
0 0 0 
0 0 0 
0 0 0 
0 0 0 
0 0 0 
0 0 0 
0 0 0 
0 0 0 
0 0 0 
0 0 0 
0 0 0 
0 0 0 
0 0 0 
0 0 0 
0 0 0 
0 0 0 
0 0 0 
0 0 0 
0 0 0 
0 0 0 
0 0 0 
0 0 0 
0 0 0 
0 0 0 
0 0 0 
0 0 0 
0 0 0 
0 0 0 
0 0 0 
0 0 0 
SCALARS num_collisions int 1
LOOKUP_TABLE default
1 
1 
1 
1 
1 
1 
1 
1 
1 
1 
1 
1 
1 
1 
1 
1 
1 
1 
1 
1 
1 
1 
1 
1 
1 
1 
1 
1 
1 
1 
1 
1 
1 
1 
1 
1 
1 
1 
1 
1 
1 
1 
1 
1 
1 
1 
1 
1 
1 
1 
1 
1 
1 
1 
1 
1 
1 
1 
1 
1 
1 
1 
1 
1 
1 
1 
1 
1 
1 
1 
1 
1 
1 
1 
1 
1 
1 
1 
1 
1 
1 
1 
1 
1 
1 
1 
1 
1 
1 
1 
1 
1 
1 
1 
1 
1 
1 
1 
1 
1 
1 
1 
1 
1 
1 
1 
1 
1 
1 
1 
1 
1 
1 
1 
1 
1 
1 
1 
1 
1 
1 
1 
1 
1 
1 
1 
1 
1 
1 
1 
1 
1 
1 
1 
1 
1 
1 
1 
1 
1 
1 
1 
1 
1 
1 
1 
1 
1 
1 
1 
1 
1 
1 
1 
1 
1 
1 
1 
1 
1 
1 
1 
1 
1 
1 
1 
1 
1 
1 
1 
1 
1 
1 
1 
1 
1 
1 
1 
1 
1 
1 
1 
1 
1 
1 
1 
1 
1 
1 
1 
1 
1 
1 
1 
VECTORS pos double
-0.403333 -0.203333 -0.432793 
-0.382148 -0.000762731 -0.424242 
-0.402763 0.397237 -0.432793 
-0.203538 -0.203538 -0.432793 
-0.203218 -0.00321788 -0.432791 
-0.171497 0.203568 -0.425813 
-0.202116 0.400721 -0.464281 
-0.0421069 -0.400797 -0.420653 
-0.00366947 -0.203669 -0.432793 
-0.00360232 -0.00360232 -0.432793 
-0.0781683 0.413528 -0.433146 
0.340922 0.427906 -0.440701 
0.332655 0.434114 -0.35628 
0.401393 -0.375139 -0.407061 
0.399758 -0.425346 -0.406575 
0.370489 -0.0488113 -0.414487 
0.403271 0.0639003 -0.413437 
-0.344203 -0.394715 -0.393328 
-0.403333 -0.203333 -0.354622 
-0.364089 0.0158211 -0.351632 
-0.402763 0.397237 -0.354622 
-0.302899 -0.412864 -0.344692 
-0.203538 -0.203538 -0.354621 
-0.203218 -0.00321788 -0.354619 
-0.195905 0.437689 -0.427642 
-0.102217 -0.427482 -0.370549 
-0.0127643 -0.41569 -0.375081 
-0.0682314 -0.368383 -0.340375 
-0.00366947 -0.203669 -0.354622 
-0.00360232 -0.00360232 -0.354622 
0.0364087 0.304164 -0.426611 
-0.017924 0.245295 -0.401163 
0.0481474 0.248611 -0.407272 
0.214791 0.160649 -0.434051 
0.344015 0.436726 -0.312056 
0.391382 -0.336428 -0.316903 
0.358531 -0.181979 -0.433102 
-0.403333 -0.203333 -0.276387 
-0.355701 0.00863331 -0.275619 
-0.402763 0.397237 -0.276386 
-0.17826 -0.410553 -0.414684 
-0.203538 -0.203538 -0.276386 
-0.203218 -0.00321788 -0.276383 
-0.150019 0.169708 -0.333972 
-0.249367 0.435294 -0.378735 
0.0222991 -0.414242 -0.316118 
-0.00366947 -0.203669 -0.276386 
-0.00360232 -0.00360232 -0.276386 
-0.0321746 0.310965 -0.342265 
-0.0177019 0.230146 -0.342956 
0.425165 -0.207783 -0.37289 
0.442749 0.246251 -0.409861 
-0.403333 -0.203333 -0.198071 
-0.375208 0.000172035 -0.21693 
-0.402763 0.397237 -0.198069 
-0.192996 -0.38887 -0.370709 
-0.130722 -0.447086 -0.329134 
-0.203538 -0.203538 -0.198069 
-0.203218 -0.00321788 -0.198066 
-0.00366947 -0.203669 -0.198069 
-0.00360232 -0.00360232 -0.198069 
0.22598 0.194249 -0.391358 
0.388803 -0.286651 -0.236482 
-0.403333 -0.203333 -0.119663 
-0.402763 0.397237 -0.119661 
-0.20676 -0.408069 -0.300829 
-0.203538 -0.203538 -0.119661 
-0.203218 -0.00321788 -0.119658 
-0.00366946 -0.203669 -0.11966 
-0.00360232 -0.00360232 -0.119661 
-0.00697167 0.229923 -0.270004 
-0.0733215 0.206915 -0.259838 
0.218379 0.181754 -0.328232 
0.37208 0.44763 -0.146286 
0.39256 0.440745 -0.237409 
0.407892 0.423983 -0.290859 
-0.403333 -0.203333 -0.0411597 
-0.179612 0.21228 -0.192019 
-0.402763 0.397237 -0.0411578 
-0.142166 -0.398945 -0.243333 
-0.203538 -0.203538 -0.0411578 
-0.203218 -0.00321788 -0.0411542 
-0.133315 0.223693 -0.201251 
-0.0470135 -0.371565 -0.2492 
-0.00366946 -0.203669 -0.0411537 
-0.00360232 -0.00360232 -0.0411581 
-0.00172197 0.211419 -0.194954 
0.419069 0.389372 -0.234713 
-0.403333 -0.203333 0.0374382 
-0.402763 0.397237 0.0374401 
-0.203538 -0.203538 0.0374402 
-0.203218 -0.00321788 0.0374436 
-0.192079 0.389503 -0.204764 
-0.00366981 -0.203669 0.0374511 
-0.00360232 -0.00360232 0.0374399 
-0.0161601 0.216564 -0.148774 
0.176087 -0.423912 0.0350851 
0.229723 0.16387 -0.254289 
0.432894 0.403107 -0.130426 
-0.403333 -0.203333 0.116125 
-0.402763 0.397237 0.116127 
-0.203538 -0.203538 0.116127 
-0.203218 -0.00321788 0.11613 
-0.188655 0.404927 -0.138273 
-0.00366995 -0.203669 0.116152 
-0.00360232 -0.00360232 0.116127 
0.215006 -0.0120674 0.106647 
0.205889 0.158564 -0.18603 
0.400986 0.42083 -0.0724448 
-0.346195 -0.368278 0.185856 
-0.403333 -0.203333 0.194893 
-0.402763 0.397237 0.194895 
-0.203538 -0.203538 0.194895 
-0.203218 -0.00321788 0.194898 
-0.205042 0.400369 -0.0512572 
-0.00362998 -0.203689 0.194942 
-0.00360232 -0.00360232 0.194895 
0.209157 -0.0124438 0.182587 
0.406341 0.385359 -0.00366706 
-0.403333 -0.203333 0.431561 
-0.402763 0.397237 0.431561 
-0.203538 -0.203538 0.431562 
-0.203218 -0.00321788 0.431563 
-0.193147 0.399908 0.0258681 
-0.00439058 -0.20343 0.431655 
-0.00360232 -0.00360232 0.431561 
0.406642 0.38302 0.0892138 
-0.403333 -0.203333 0.27373 
-0.402763 0.397237 0.273732 
-0.210503 -0.408144 0.164915 
-0.203538 -0.203538 0.273732 
-0.203218 -0.00321788 0.273734 
-0.205545 0.408584 0.100938 
-0.00381845 -0.203597 0.273809 
-0.00360232 -0.00360232 0.273731 
0.188477 -0.0195914 0.337492 
-0.446944 -0.423917 0.367118 
-0.403333 -0.203333 0.352624 
-0.402763 0.397237 0.352625 
-0.203538 -0.203538 0.352625 
-0.203218 -0.00321788 0.352627 
0.00434101 -0.391691 0.259576 
-0.004431 -0.203379 0.352736 
-0.00360232 -0.00360232 0.352625 
0.0435216 -0.199062 0.380364 
-0.5 -0.413138 0.422235 
-0.50002 -0.441452 0.32531 
0.500002 0.24146 -0.456464 
0.398093 -0.5 -0.363118 
0.0385219 0.500011 -0.439958 
-0.0977851 0.5 -0.344436 
0.411146 0.500012 -0.355533 
-0.221664 0.500004 -0.38582 
-0.203218 -0.00321788 -0.5 
0.201342 0.0064575 -0.500002 
0.401424 -0.400685 -0.5 
0.384972 0.0926669 -0.5 
-0.00360232 -0.00360232 -0.5 
-0.449953 0.147909 -0.5 
-0.39505 -0.00931383 -0.500023 
-0.0221658 0.225226 -0.500075 
0.205986 -0.401149 -0.500003 
-0.13609 0.406113 -0.500007 
-0.0541306 0.404021 -0.500006 
-0.237113 0.368317 -0.500004 
0.316448 -0.160956 -0.5 
0.454679 0.349848 -0.500003 
-0.178426 -0.390764 -0.500018 
-0.0341427 -0.386379 -0.500028 
-0.310627 0.160211 -0.500003 
0.399368 0.279938 -0.500006 
0.0555098 0.347415 -0.500004 
-0.402763 0.397237 -0.5 
-0.203538 -0.203538 -0.5 
-0.00366947 -0.203669 -0.5 
-0.182635 0.214067 -0.500008 
0.294867 0.0528664 -0.500003 
0.0227184 0.189619 -0.500003 
0.174224 0.19755 -0.500001 
0.219744 0.13487 -0.500019 
0.165788 -0.175408 -0.500002 
0.236635 0.370777 -0.500005 
0.349841 0.447341 -0.500003 
-0.403333 -0.203333 -0.5 
0.407157 -0.297036 -0.5 
-0.260736 -0.419195 -0.500006 
0.354832 -0.0172982 -0.5 
-0.203218 -0.00321788 0.5 
-0.403333 -0.203333 0.5 
-0.402763 0.397237 0.5 
-0.203538 -0.203538 0.5 
-0.190305 0.20863 0.500007 
-0.00396585 -0.203589 0.5 
-0.00360232 -0.00360232 0.5 
VECTORS dir_n double
2.28728e-20 0 -1 
0.00252541 -0.0646624 -0.997904 
2.28743e-20 0 -1 
2.28734e-20 0 -1 
2.28732e-20 0 -1 
0.248142 0.0951767 -0.964037 
-0.727904 -0.639813 -0.246567 
0.120662 -0.131153 -0.983992 
3.57573e-14 -2.0956e-14 -1 
2.28734e-20 0 -1 
0.473698 -0.0623152 -0.87848 
-0.535628 -0.203957 0.819453 
-0.37028 -0.328119 -0.86904 
0.000621845 -0.511008 -0.859576 
0.0333183 0.493269 -0.869238 
-0.313132 0.63028 -0.710419 
-0.365978 0.575344 -0.731464 
-0.957824 0.216331 -0.18914 
2.29311e-20 0 -1 
-0.0812769 -0.18911 -0.978586 
2.29323e-20 0 -1 
-0.616604 -0.0220896 -0.786964 
2.29317e-20 0 -1 
2.29315e-20 0 -1 
0.599338 -0.618826 -0.507788 
0.917461 0.376702 -0.127909 
-0.848133 0.224884 -0.479686 
-0.103645 -0.0648052 -0.992501 
-2.86659e-12 1.88294e-12 -1 
2.29316e-20 0 -1 
-0.56443 -0.802993 -0.191367 
0.28335 0.0158748 -0.958885 
-0.522869 0.186708 -0.831714 
-0.583168 -0.503038 -0.637862 
-0.758913 -0.258495 0.597688 
0.199626 -0.26332 -0.943828 
-0.841779 0.420512 -0.338494 
2.30099e-20 0 -1 
0.165798 -0.182907 -0.969049 
2.30108e-20 0 -1 
-0.0750604 0.517478 -0.852398 
2.30104e-20 0 -1 
2.30103e-20 0 -1 
-0.177873 0.402288 -0.898068 
0.883069 0.160267 -0.441026 
-0.061618 -0.206136 -0.976581 
2.83738e-11 -1.89122e-11 -1 
2.30103e-20 0 -1 
-0.0920299 -0.805233 -0.585773 
-0.0246567 0.458521 -0.888342 
-0.491051 0.0956396 -0.865865 
0.129955 -0.225998 0.96542 
2.31037e-20 0 -1 
0.594293 0.0554639 -0.802334 
2.31042e-20 0 -1 
0.911437 -0.0103988 -0.411308 
-0.0501098 0.0931242 -0.994393 
2.3104e-20 0 -1 
2.31041e-20 0 -1 
1.784e-09 -1.21221e-09 -1 
2.3104e-20 0 -1 
0.0551868 -0.305035 -0.950741 
-0.148052 -0.73228 -0.664716 
2.32063e-20 0 -1 
2.32065e-20 0 -1 
-0.70843 0.214707 -0.67233 
2.32065e-20 0 -1 
2.32067e-20 0 -1 
-4.82217e-08 3.22357e-08 -1 
2.32064e-20 0 -1 
-0.505013 0.0826924 -0.859141 
0.306847 0.281592 -0.909148 
0.0215459 0.313981 -0.949185 
-0.116453 0.0460359 -0.992129 
-0.526063 0.183736 0.830361 
-0.335498 0.405484 -0.850308 
2.33116e-20 0 -1 
-0.985149 -0.0896829 0.146418 
2.33114e-20 0 -1 
-0.48289 0.0605458 -0.873585 
2.33116e-20 0 -1 
2.33118e-20 0 -1 
0.206172 -0.308433 -0.928634 
0.0830913 -0.154315 0.984522 
-3.11974e-08 -2.8963e-08 -1 
2.33116e-20 0 -1 
0.0823935 -0.091372 0.992402 
0.124622 0.342435 -0.93124 
2.34141e-20 0 -1 
2.34137e-20 0 -1 
2.3414e-20 0 -1 
2.34142e-20 0 -1 
0.0517955 -0.195129 -0.979409 
8.77666e-06 -5.39185e-06 -1 
2.3414e-20 0 -1 
-0.530983 0.316825 0.785926 
-0.17189 0.0320159 -0.984596 
0.0612972 0.46879 -0.88118 
-0.531682 0.707536 0.465518 
2.35095e-20 0 -1 
2.35088e-20 0 -1 
2.35092e-20 0 -1 