# vtk DataFile Version 2.0
Generated by NetDEM
ASCII 
DATASET POLYDATA
POINTS 520 double
-0.418412 -0.405711 -0.463449 
-0.425764 -0.402948 -0.391522 
-0.413323 -0.00606463 -0.465026 
-0.412348 -0.00923504 -0.386669 
-0.449994 0.117927 -0.450025 
-0.37995 0.0839956 -0.387241 
-0.449994 0.117927 -0.450025 
-0.449994 0.175992 -0.368626 
-0.448949 0.347269 -0.45002 
-0.356644 0.372801 -0.404951 
-0.309357 -0.207857 -0.450007 
-0.226542 -0.182902 -0.399819 
-0.252855 0.36903 -0.463945 
-0.356644 0.372801 -0.404951 
-0.252855 0.36903 -0.463945 
-0.230355 0.324587 -0.392997 
-0.0545148 -0.39878 -0.461179 
-0.0853666 -0.388272 -0.394534 
-0.0545148 -0.39878 -0.461179 
0.0405375 -0.438139 -0.437308 
-0.0558265 -0.0862114 -0.450011 
-0.00598832 -0.0225631 -0.392856 
0.0347003 0.178695 -0.4523 
-0.0572482 0.126672 -0.441498 
0.0347003 0.178695 -0.4523 
0.110252 0.136277 -0.399031 
0.193082 -0.400724 -0.462838 
0.206149 -0.412054 -0.389209 
0.169284 -0.209218 -0.46294 
0.165842 -0.204215 -0.389115 
0.172774 -0.00959491 -0.462827 
0.175665 0.00530017 -0.384165 
0.172774 -0.00959491 -0.462827 
0.252597 -0.0575095 -0.432101 
0.160124 0.209646 -0.465055 
0.1183 0.300771 -0.423678 
0.304177 0.404493 -0.411483 
0.3708 0.438645 -0.46509 
0.304177 0.404493 -0.411483 
0.330854 0.30814 -0.412296 
0.449959 -0.407307 -0.450058 
0.397478 -0.450031 -0.376488 
0.430904 -0.301142 -0.450076 
0.438358 -0.354512 -0.365931 
0.38107 0.0913547 -0.450032 
0.323547 0.0642194 -0.372892 
0.38107 0.0913547 -0.450032 
0.449985 0.137817 -0.394515 
-0.425764 -0.402948 -0.391522 
-0.434715 -0.437716 -0.326041 
-0.449994 0.175992 -0.368626 
-0.445733 0.0997833 -0.304029 
-0.310261 0.155622 -0.462344 
-0.285922 0.118022 -0.387762 
-0.144484 0.402467 -0.445997 
-0.108699 0.316508 -0.394612 
-0.144484 0.402467 -0.445997 
-0.219598 0.441811 -0.398715 
-0.0853666 -0.388272 -0.394534 
-0.100623 -0.307797 -0.360071 
0.321489 -0.236317 -0.0849908 
0.310234 -0.162077 -0.155087 
0.321489 -0.236317 -0.0849908 
0.352782 -0.216542 0.00790223 
0.0252988 0.260131 -0.449715 
-0.0358606 0.223462 -0.381314 
0.1183 0.300771 -0.423678 
0.0640701 0.395253 -0.406994 
0.206149 -0.412054 -0.389209 
0.260293 -0.321358 -0.346245 
0.206149 -0.412054 -0.389209 
0.29345 -0.450004 -0.373089 
0.165842 -0.204215 -0.389115 
0.21029 -0.199541 -0.302912 
0.165842 -0.204215 -0.389115 
0.161529 -0.304118 -0.373856 
0.175665 0.00530017 -0.384165 
0.163452 0.0479596 -0.323955 
0.195159 0.11227 -0.456545 
0.260007 0.176535 -0.445826 
0.195159 0.11227 -0.456545 
0.110252 0.136277 -0.399031 
0.288406 0.376267 -0.316797 
0.201987 0.31142 -0.334418 
0.288406 0.376267 -0.316797 
0.248854 0.450007 -0.262108 
0.397478 -0.450031 -0.376488 
0.449999 -0.448401 -0.291413 
0.397478 -0.450031 -0.376488 
0.349172 -0.411253 -0.297998 
0.438358 -0.354512 -0.365931 
0.450062 -0.312988 -0.275787 
0.449985 0.137817 -0.394515 
0.383413 0.167227 -0.325965 
0.449985 0.137817 -0.394515 
0.449888 0.0558949 -0.3372 
0.424916 0.339762 -0.456299 
0.428798 0.366564 -0.375801 
0.424916 0.339762 -0.456299 
0.330854 0.30814 -0.412296 
-0.434715 -0.437716 -0.326041 
-0.43717 -0.451867 -0.24457 
-0.43892 0.274503 -0.382089 
-0.423214 0.24209 -0.463943 
-0.43892 0.274503 -0.382089 
-0.421888 0.260198 -0.284598 
-0.182296 -0.372401 -0.451986 
-0.160301 -0.446439 -0.390524 
0.212525 -0.322654 -0.199106 
0.252492 -0.300377 -0.274718 
-0.347539 0.335044 -0.330289 
-0.356644 0.372801 -0.404951 
-0.0358606 0.223462 -0.381314 
0.00631479 0.293068 -0.331751 
-0.0358606 0.223462 -0.381314 
-0.108092 0.27522 -0.308237 
0.207438 -0.433226 -0.31627 
0.0971603 -0.449084 -0.330184 
0.0507361 -0.092038 -0.449917 
0.133694 -0.0975977 -0.396513 
0.163452 0.0479596 -0.323955 
0.12794 0.0641167 -0.261932 
0.273669 0.0668141 -0.444002 
0.323547 0.0642194 -0.372892 
0.110252 0.136277 -0.399031 
0.0511118 0.117091 -0.325173 
0.378707 -0.215677 -0.450039 
0.450022 -0.207204 -0.380489 
0.378707 -0.215677 -0.450039 
0.336336 -0.176914 -0.368191 
0.382236 -0.106863 -0.450052 
0.352247 -0.0777826 -0.35923 
0.382236 -0.106863 -0.450052 
0.450011 -0.104902 -0.37657 
-0.43717 -0.451867 -0.24457 
-0.394372 -0.441896 -0.165809 
-0.285922 0.118022 -0.387762 
-0.346023 0.147215 -0.313377 
-0.285922 0.118022 -0.387762 
-0.231167 0.176408 -0.327836 
-0.285922 0.118022 -0.387762 
-0.37995 0.0839956 -0.387241 
-0.346023 0.147215 -0.313377 
-0.354691 0.204953 -0.232201 
-0.160301 -0.446439 -0.390524 
-0.162948 -0.384116 -0.324989 
-0.0572482 0.126672 -0.441498 
-0.133618 0.141632 -0.383903 
-0.356644 0.372801 -0.404951 
-0.313957 0.436088 -0.341303 
0.449998 -0.317586 -0.00647031 
0.407642 -0.289729 -0.0926005 
0.449998 -0.317586 -0.00647031 
0.449409 -0.372226 0.0772461 
0.0212776 0.0476785 -0.450052 
0.0317778 0.0422464 -0.353763 
0.0640701 0.395253 -0.406994 
-0.00230695 0.4387 -0.465001 
0.0640701 0.395253 -0.406994 
-0.00489167 0.414401 -0.361708 
0.161529 -0.304118 -0.373856 
0.260293 -0.321358 -0.346245 
0.12794 0.0641167 -0.261932 
0.203895 0.143181 -0.251533 
0.12794 0.0641167 -0.261932 
0.0436931 0.0736157 -0.249745 
0.12794 0.0641167 -0.261932 
0.110732 -0.00421754 -0.181608 
0.260007 0.176535 -0.445826 
0.328898 0.209101 -0.398613 
0.260007 0.176535 -0.445826 
0.235704 0.230903 -0.377176 
0.155549 0.450011 -0.450015 
0.207395 0.385801 -0.393559 
0.357565 -0.314628 -0.322341 
0.39364 -0.224162 -0.299691 
0.357565 -0.314628 -0.322341 
0.349172 -0.411253 -0.297998 
0.450011 -0.104902 -0.37657 
0.438232 -0.0375481 -0.303603 
0.450011 -0.104902 -0.37657 
0.449997 -0.14301 -0.284124 
0.383413 0.167227 -0.325965 
0.306631 0.136909 -0.269531 
0.330854 0.30814 -0.412296 
0.328898 0.209101 -0.398613 
0.428798 0.366564 -0.375801 
0.399079 0.298282 -0.307716 
-0.394372 -0.441896 -0.165809 
-0.380304 -0.372765 -0.101964 
-0.380304 -0.372765 -0.101964 
-0.327583 -0.439782 -0.0270089 
-0.00598832 -0.0225631 -0.392856 
0.0317778 0.0422464 -0.353763 
0.0317778 0.0422464 -0.353763 
0.0511118 0.117091 -0.325173 
0.235704 0.230903 -0.377176 
0.22621 0.184434 -0.315995 
0.450022 -0.207204 -0.380489 
0.39364 -0.224162 -0.299691 
-0.462326 -0.452424 -0.104086 
-0.444322 -0.450741 0.0279733 
-0.231167 0.176408 -0.327836 
-0.129231 0.189203 -0.30937 
-0.231167 0.176408 -0.327836 
-0.222651 0.207012 -0.233022 
-0.313957 0.436088 -0.341303 
-0.38027 0.450003 -0.267765 
-0.162948 -0.384116 -0.324989 
-0.216406 -0.365877 -0.218375 
-0.095741 -0.246627 -0.228519 
-0.141478 -0.321823 -0.273583 
-0.133618 0.141632 -0.383903 
-0.191004 0.0842855 -0.30861 
-0.230355 0.324587 -0.392997 
-0.167967 0.353996 -0.319217 
-0.230355 0.324587 -0.392997 
-0.208319 0.274347 -0.324026 
-0.100623 -0.307797 -0.360071 
-0.0143243 -0.343607 -0.314929 
0.434025 0.0501401 -0.138822 
0.407185 -0.0257634 -0.198138 
-0.108699 0.316508 -0.394612 
-0.167967 0.353996 -0.319217 
0.236815 -0.143108 -0.382334 
0.21029 -0.199541 -0.302912 
0.236815 -0.143108 -0.382334 
0.336336 -0.176914 -0.368191 
0.110732 -0.00421754 -0.181608 
0.128125 -0.0108631 -0.0876742 
0.201987 0.31142 -0.334418 
0.228821 0.325513 -0.238717 
0.449888 0.0558949 -0.3372 
0.438232 -0.0375481 -0.303603 
0.449888 0.0558949 -0.3372 
0.443259 0.0790755 -0.24016 
0.437236 0.397375 -0.291778 
0.446369 0.373741 -0.200734 
-0.108092 0.27522 -0.308237 
-0.167967 0.353996 -0.319217 
0.133694 -0.0975977 -0.396513 
0.0953019 -0.0609711 -0.303577 
0.262627 -0.121847 -0.235288 
0.252095 -0.0761899 -0.328779 
0.262627 -0.121847 -0.235288 
0.336897 -0.0544347 -0.263234 
0.262627 -0.121847 -0.235288 
0.310234 -0.162077 -0.155087 
0.22621 0.184434 -0.315995 
0.153947 0.229443 -0.268337 
0.22621 0.184434 -0.315995 
0.316102 0.242616 -0.304266 
0.39364 -0.224162 -0.299691 
0.361048 -0.151714 -0.239008 
0.352247 -0.0777826 -0.35923 
0.336897 -0.0544347 -0.263234 
0.323547 0.0642194 -0.372892 
0.362325 0.0399786 -0.283966 
0.399079 0.298282 -0.307716 
0.316102 0.242616 -0.304266 
-0.327583 -0.439782 -0.0270089 
-0.242084 -0.441187 -0.06803 
-0.445733 0.0997833 -0.304029 
-0.425701 0.137092 -0.213443 
-0.143987 0.372153 -0.0355817 
-0.102202 0.379468 -0.122841 
-0.0393207 0.267928 -0.228484 
-0.0668165 0.310149 -0.164406 
0.310234 -0.162077 -0.155087 
0.361048 -0.151714 -0.239008 
0.248854 0.450007 -0.262108 
0.176293 0.447331 -0.193415 
0.248854 0.450007 -0.262108 
0.278626 0.448954 -0.166663 
0.450062 -0.312988 -0.275787 
0.422104 -0.385965 -0.213565 
0.362325 0.0399786 -0.283966 
0.336897 -0.0544347 -0.263234 
0.362325 0.0399786 -0.283966 
0.443259 0.0790755 -0.24016 
-0.242084 -0.441187 -0.06803 
-0.235617 -0.427247 -0.156011 
-0.298291 0.214739 -0.156858 
-0.222651 0.207012 -0.233022 
-0.298291 0.214739 -0.156858 
-0.354691 0.204953 -0.232201 
-0.191004 0.0842855 -0.30861 
-0.165101 0.116507 -0.214853 
-0.38027 0.450003 -0.267765 
-0.420161 0.449621 -0.17607 
-0.216406 -0.365877 -0.218375 
-0.235617 -0.427247 -0.156011 
-0.0510781 -0.395978 -0.255513 
-0.0604424 -0.37997 -0.167304 
0.271206 -0.417829 -0.0830666 
0.364577 -0.397581 -0.066487 
0.228821 0.325513 -0.238717 
0.163309 0.267942 -0.192702 
0.422104 -0.385965 -0.213565 
0.374525 -0.302366 -0.186388 
0.422104 -0.385965 -0.213565 
0.367916 -0.450136 -0.15925 
0.446881 -0.23324 -0.215527 
0.450003 -0.168213 -0.139636 
-0.433534 0.391687 -0.00491208 
-0.450001 0.449501 -0.0806269 
-0.183976 0.184767 -0.151327 
-0.222651 0.207012 -0.233022 
-0.0604424 -0.37997 -0.167304 
0.00573297 -0.376196 -0.104704 
0.302912 -0.326129 -0.126004 
0.374525 -0.302366 -0.186388 
0.163309 0.267942 -0.192702 
0.0905144 0.24712 -0.12084 
0.163309 0.267942 -0.192702 
0.224464 0.196506 -0.168357 
0.201584 0.428855 -0.0984543 
0.176293 0.447331 -0.193415 
0.367916 -0.450136 -0.15925 
0.450054 -0.426827 -0.107259 
-0.420161 0.449621 -0.17607 
-0.450001 0.449501 -0.0806269 
-0.157149 0.433839 -0.206782 
-0.102202 0.379468 -0.122841 
0.00573297 -0.376196 -0.104704 
0.0151473 -0.409977 -0.0192421 
0.0929586 0.440207 -0.138663 
0.176293 0.447331 -0.193415 
0.0929586 0.440207 -0.138663 
0.00816282 0.37718 -0.113433 
0.364577 -0.397581 -0.066487 
0.450054 -0.426827 -0.107259 
0.376653 -0.132303 -0.0989119 
0.450003 -0.168213 -0.139636 
0.224464 0.196506 -0.168357 
0.257438 0.177962 -0.083944 
0.448686 0.22057 -0.26515 
0.449951 0.272815 -0.179893 
-0.343923 -0.414794 0.0671033 
-0.268299 -0.345931 0.124572 
-0.449756 0.0922643 -0.127359 
-0.425701 0.137092 -0.213443 
-0.449756 0.0922643 -0.127359 
-0.434475 0.10774 -0.0347513 
-0.354691 0.204953 -0.232201 
-0.425701 0.137092 -0.213443 
-0.196666 0.427973 -0.102247 
-0.102202 0.379468 -0.122841 
-0.196666 0.427973 -0.102247 
-0.235754 0.383557 0.00343996 
-0.0668165 0.310149 -0.164406 
-0.102202 0.379468 -0.122841 
0.00816282 0.37718 -0.113433 
-0.102202 0.379468 -0.122841 
0.00816282 0.37718 -0.113433 
-0.0195235 0.430362 -0.0443788 
0.00816282 0.37718 -0.113433 
-0.0434941 0.30542 -0.0354436 
0.257438 0.177962 -0.083944 
0.289708 0.197502 -0.00111458 
0.336897 -0.0544347 -0.263234 
0.407185 -0.0257634 -0.198138 
-0.17206 -0.342323 0.151427 
-0.268299 -0.345931 0.124572 
-0.117377 0.284427 0.0102798 
-0.0434941 0.30542 -0.0354436 
-0.0195235 0.430362 -0.0443788 
0.00667602 0.409711 0.0310687 
0.360989 0.243391 -0.142317 
0.391116 0.223537 -0.0497023 
0.360989 0.243391 -0.142317 
0.379356 0.173099 -0.210841 
0.44713 0.448318 0.129699 
0.424897 0.395624 0.232238 
-0.0934825 0.416587 0.0501923 
0.00667602 0.409711 0.0310687 
-0.450017 0.126217 0.275442 
-0.401874 0.187194 0.33824 
-0.450017 0.126217 0.275442 
-0.436916 0.0121113 0.289545 
0.274814 0.060165 0.324533 
0.184432 0.110049 0.329167 
-0.299701 -0.208694 0.377289 
-0.224451 -0.235819 0.31776 
-0.0468001 -0.253015 0.32044 
0.00136492 -0.199393 0.370863 
-0.450001 0.449501 -0.0806269 
-0.5 0.449501 -0.0806258 
-0.450017 0.126217 0.275442 
-0.5 0.126243 0.275511 
0.44713 0.448318 0.129699 
0.5 0.465454 0.122464 
0.450022 -0.207204 -0.380489 
0.5 -0.207203 -0.380488 
0.450011 -0.104902 -0.37657 
0.5 -0.1049 -0.376569 
0.450003 -0.168213 -0.139636 
0.5 -0.168216 -0.139635 
0.450062 -0.312988 -0.275787 
0.5 -0.312985 -0.27581 
0.450054 -0.426827 -0.107259 
0.5 -0.42683 -0.107259 
0.29345 -0.450004 -0.373089 
0.29345 -0.5 -0.373087 
0.367916 -0.450136 -0.15925 
0.36792 -0.5 -0.159252 
-0.43717 -0.451867 -0.24457 
-0.447653 -0.500021 -0.247011 
0.397478 -0.450031 -0.376488 
0.397478 -0.5 -0.376488 
-0.160301 -0.446439 -0.390524 
-0.150058 -0.500006 -0.377626 
-0.242084 -0.441187 -0.06803 
-0.23192 -0.500003 -0.053425 
-0.462326 -0.452424 -0.104086 
-0.471244 -0.500004 -0.0942321 
-0.394372 -0.441896 -0.165809 
-0.381952 -0.500001 -0.180111 
0.155549 0.450011 -0.450015 
0.155552 0.5 -0.450015 
-0.38027 0.450003 -0.267765 
-0.38027 0.5 -0.267764 
0.397515 0.448365 -0.357932 
0.422591 0.500017 -0.376777 
0.248854 0.450007 -0.262108 
0.248853 0.5 -0.262109 
-0.29092 0.266638 -0.450007 
-0.290919 0.266639 -0.5 
0.172774 -0.00959491 -0.462827 
0.197585 -0.00816196 -0.50002 
-0.309357 -0.207857 -0.450007 
-0.309363 -0.20786 -0.5 
-0.182296 -0.372401 -0.451986 
-0.188795 -0.389383 -0.500021 
-0.151754 -0.139336 -0.450006 
-0.151759 -0.139342 -0.5 
-0.418412 -0.405711 -0.463449 
-0.40431 -0.401358 -0.500044 
0.438425 0.255444 -0.459862 
0.453443 0.253787 -0.500004 
0.0212776 0.0476785 -0.450052 
0.0215815 0.0453147 -0.500009 
0.338848 -0.0101819 -0.450007 
0.338847 -0.0101819 -0.5 
-0.0545148 -0.39878 -0.461179 
-0.0744769 -0.400023 -0.500009 
0.255908 0.330602 -0.463778 
0.253598 0.324182 -0.500004 
-0.00230695 0.4387 -0.465001 
0.0192974 0.433893 -0.500011 
-0.448949 0.347269 -0.45002 
-0.44895 0.347269 -0.5 
0.449695 -0.0223796 -0.450007 
0.449695 -0.0223717 -0.5 
0.3708 0.438645 -0.46509 
0.376146 0.445847 -0.500029 
-0.413323 -0.00606463 -0.465026 
-0.409067 -0.0481711 -0.500007 
0.449959 -0.407307 -0.450058 
0.449959 -0.407308 -0.5 
0.382236 -0.106863 -0.450052 
0.382235 -0.106862 -0.5 
-0.423214 0.24209 -0.463943 
-0.435704 0.237424 -0.500006 
-0.0558265 -0.0862114 -0.450011 
-0.0558264 -0.0862116 -0.5 
-0.173196 0.171807 -0.463814 
-0.170616 0.166624 -0.500003 
-0.271479 -0.429185 -0.458977 
-0.28104 -0.424939 -0.500001 
0.193082 -0.400724 -0.462838 
0.206376 -0.401496 -0.500013 
0.0252988 0.260131 -0.449715 
0.0152843 0.257275 -0.500015 
0.0507361 -0.092038 -0.449917 
0.0648356 -0.0916591 -0.500008 
0.160124 0.209646 -0.465055 
0.175182 0.197166 -0.500009 
0.378707 -0.215677 -0.450039 
0.378705 -0.215676 -0.5 
-0.252855 0.36903 -0.463945 
-0.259983 0.356626 -0.500026 
0.169284 -0.209218 -0.46294 
0.158018 -0.198993 -0.500019 
0.430904 -0.301142 -0.450076 
0.430904 -0.301142 -0.5 
0.38107 0.0913547 -0.450032 
0.381069 0.0913566 -0.5 
0.155549 0.450011 -0.450015 
0.155552 0.450012 -0.5 
0.273669 0.0668141 -0.444002 
0.289347 0.0423425 -0.500005 
-0.310261 0.155622 -0.462344 
-0.296491 0.134099 -0.500015 
-0.0572482 0.126672 -0.441498 
-0.0945041 0.153255 -0.500004 
-0.446813 0.4476 -0.450007 
-0.446814 0.447599 -0.5 
-0.0306882 0.321068 -0.440865 
-0.0310726 0.335867 -0.500003 
-0.449745 -0.203623 -0.450007 
-0.449745 -0.203622 -0.5 
-0.449994 0.117927 -0.450025 
-0.449994 0.117926 -0.5 
0.0347003 0.178695 -0.4523 
0.0381912 0.163794 -0.500022 
0.260007 0.176535 -0.445826 
0.274849 0.190411 -0.500015 
0.195159 0.11227 -0.456545 
0.193474 0.140784 -0.500026 
0.272508 -0.197057 -0.450007 
0.272507 -0.197055 -0.5 
-0.144484 0.402467 -0.445997 
-0.119836 0.416897 -0.500013 
-0.173542 0.0788645 -0.450059 
-0.169302 0.0752965 -0.500003 
-0.19722 -0.00843139 -0.450007 
-0.197213 -0.00843375 -0.5 
0.332632 -0.0200484 0.449999 
0.332979 -0.020009 0.5 
LINES 260 780
2 0 1
2 2 3
2 4 5
2 6 7
2 8 9
2 10 11
2 12 13
2 14 15
2 16 17
2 18 19
2 20 21
2 22 23
2 24 25
2 26 27
2 28 29
2 30 31
2 32 33
2 34 35
2 36 37
2 38 39
2 40 41
2 42 43
2 44 45
2 46 47
2 48 49
2 50 51
2 52 53
2 54 55
2 56 57
2 58 59
2 60 61
2 62 63
2 64 65
2 66 67
2 68 69
2 70 71
2 72 73
2 74 75
2 76 77
2 78 79
2 80 81
2 82 83
2 84 85
2 86 87
2 88 89
2 90 91
2 92 93
2 94 95
2 96 97
2 98 99
2 100 101
2 102 103
2 104 105
2 106 107
2 108 109
2 110 111
2 112 113
2 114 115
2 116 117
2 118 119
2 120 121
2 122 123
2 124 125
2 126 127
2 128 129
2 130 131
2 132 133
2 134 135
2 136 137
2 138 139
2 140 141
2 142 143
2 144 145
2 146 147
2 148 149
2 150 151
2 152 153
2 154 155
2 156 157
2 158 159
2 160 161
2 162 163
2 164 165
2 166 167
2 168 169
2 170 171
2 172 173
2 174 175
2 176 177
2 178 179
2 180 181
2 182 183
2 184 185
2 186 187
2 188 189
2 190 191
2 192 193
2 194 195
2 196 197
2 198 199
2 200 201
2 202 203
2 204 205
2 206 207
2 208 209
2 210 211
2 212 213
2 214 215
2 216 217
2 218 219
2 220 221
2 222 223
2 224 225
2 226 227
2 228 229
2 230 231
2 232 233
2 234 235
2 236 237
2 238 239
2 240 241
2 242 243
2 244 245
2 246 247
2 248 249
2 250 251
2 252 253
2 254 255
2 256 257
2 258 259
2 260 261
2 262 263
2 264 265
2 266 267
2 268 269
2 270 271
2 272 273
2 274 275
2 276 277
2 278 279
2 280 281
2 282 283
2 284 285
2 286 287
2 288 289
2 290 291
2 292 293
2 294 295
2 296 297
2 298 299
2 300 301
2 302 303
2 304 305
2 306 307
2 308 309
2 310 311
2 312 313
2 314 315
2 316 317
2 318 319
2 320 321
2 322 323
2 324 325
2 326 327
2 328 329
2 330 331
2 332 333
2 334 335
2 336 337
2 338 339
2 340 341
2 342 343
2 344 345
2 346 347
2 348 349
2 350 351
2 352 353
2 354 355
2 356 357
2 358 359
2 360 361
2 362 363
2 364 365
2 366 367
2 368 369
2 370 371
2 372 373
2 374 375
2 376 377
2 378 379
2 380 381
2 382 383
2 384 385
2 386 387
2 388 389
2 390 391
2 392 393
2 394 395
2 396 397
2 398 399
2 400 401
2 402 403
2 404 405
2 406 407
2 408 409
2 410 411
2 412 413
2 414 415
2 416 417
2 418 419
2 420 421
2 422 423
2 424 425
2 426 427
2 428 429
2 430 431
2 432 433
2 434 435
2 436 437
2 438 439
2 440 441
2 442 443
2 444 445
2 446 447
2 448 449
2 450 451
2 452 453
2 454 455
2 456 457
2 458 459
2 460 461
2 462 463
2 464 465
2 466 467
2 468 469
2 470 471
2 472 473
2 474 475
2 476 477
2 478 479
2 480 481
2 482 483
2 484 485
2 486 487
2 488 489
2 490 491
2 492 493
2 494 495
2 496 497
2 498 499
2 500 501
2 502 503
2 504 505
2 506 507
2 508 509
2 510 511
2 512 513
2 514 515
2 516 517
2 518 519
POINT_DATA 520
SCALARS id int 1
LOOKUP_TABLE default
0
25
2
27
3
103
3
28
4
84
6
31
9
84
9
134
10
35
10
60
12
108
13
83
13
69
15
40
16
41
17
42
17
147
18
39
19
24
19
98
20
45
21
46
23
172
23
48
25
50
28
178
33
78
34
139
34
159
35
135
36
192
36
111
38
63
39
89
40
116
40
70
41
216
41
91
42
67
43
93
43
69
44
143
44
194
45
145
45
120
46
195
48
97
48
148
49
99
49
98
50
75
54
109
54
179
55
80
56
241
59
84
63
164
63
158
65
85
66
166
67
92
68
172
69
138
71
121
71
146
72
171
72
96
75
100
78
79
78
128
78
103
79
279
80
130
83
133
84
129
86
295
86
261
88
113
89
114
89
189
91
116
92
193
92
117
92
142
93
123
93
118
94
144
95
170
95
120
96
222
96
196
97
223
98
123
99
173
100
101
101
175
108
113
113
138
118
168
121
170
125
150
128
183
128
253
129
204
130
205
131
155
133
203
134
209
134
153
135
160
137
347
139
209
141
216
141
146
142
292
143
219
148
222
148
272
149
174
158
209
166
191
167
322
167
297
167
192
168
218
168
198
170
271
171
297
172
197
173
198
175
200
178
303
182
333
188
288
192
271
194
344
194
319
195
220
197
297
197
272
200
255
202
253
202
279
203
208
204
254
205
255
210
235
215
265
219
243
220
270
220
245
221
296
227
304
233
253
235
260
240
270
243
294
243
268
244
344
245
345
254
304
259
333
260
285
262
344
262
289
265
345
266
296
268
293
273
298
275
381
278
303
278
327
279
303
284
333
284
309
288
333
289
333
289
314
289
313
293
343
297
347
306
381
308
313
314
339
323
398
323
348
324
424
334
339
353
428
353
402
367
387
376
406
405
436
304
0
353
0
324
1
121
1
96
1
296
1
195
1
345
1
70
2
245
2
75
2
45
2
80
2
200
2
125
2
100
2
94
3
204
3
124
3
194
3
53
4
17
4
6
4
55
4
11
4
0
4
74
4
88
4
22
4
10
4
64
4
114
4
4
4
122
4
24
4
2
4
20
4
72
4
109
4
12
4
8
4
5
4
15
4
38
4
66
4
18
4
71
4
9
4
16
4
21
4
23
4
94
4
68
4
33
4
83
4
29
4
14
4
1
4
3
4
13
4
93
4
43
4
47
4
34
4
58
4
7
4
447
5
CELL_DATA 260
VECTORS force double
22.7749 48.118 -196.02 
0.752212 -4.76852 -5.448 
-2.8696 0.952386 -8.21571 
-0.603596 -5.55434 -27.6579 
-0.877206 -14.8687 -91.1685 
-1.09755 -0.330585 -2.01399 
9.82963 13.9406 162.961 
18.9676 10.1114 3.40004 
-0.492652 -2.21351 -24.0585 
-2.61624 1.01725 -4.18828 
-2.4355 -3.2776 -8.64849 
11.0451 2.33999 -25.0613 
-16.1758 13.1689 -26.457 
-23.6595 -20.8165 -141.471 
27.4555 -73.171 103.363 
-185.977 163.646 624.57 
-195.413 112.186 589.407 
10.5254 -22.0038 -19.9866 
36.298 154.698 -130.559 
474.551 -79.6861 -402.649 
28.7461 42.7643 -66.0183 
18.7709 257.17 671.686 
-5.06758 -234.877 364.34 
267.92 -286.845 1444.25 
16.4607 46.0818 -177.334 
-1.13019 1.6119 -16.2574 
-2.7058 0.930798 -59.6045 
-28.2134 -27.5825 -45.1161 
-15.8424 6.26215 -16.9044 
-1.15933 -2.11145 -9.59183 
1.61446 -6.96814 14.6877 
-0.965824 1.16416 -4.70557 
-9.33387 2.74121 -48.7756 
12.0667 -18.9186 -1.77181 
-38.5036 -27.1635 170.136 
-9.76832 0.716201 89.0945 
-108.755 -246.313 -52.0734 
-125.946 76.1771 -311.935 
119.92 -54.5214 -405.684 
-91.796 -75.7834 -280.435 
2.72408 -0.131572 -76.2639 
-7.77515 3.34476 -7.72719 
25.2027 -28.7301 -42.2009 
-0.100602 0.45918 -17.8328 
11.5048 -8.59107 -19.8373 
416.476 777.416 -1602.81 
-679.708 -157.911 -898.311 
-874.923 -41.035 -1158.45 
66.4581 -433.99 -123.117 
348.343 -589.962 -316.974 
3.59766 32.4654 -145.649 
0.73401 2.71965 9.78514 
-0.221951 -0.616783 -4.28271 
-5.87956 9.85058 43.0246 
1.96286 1.00703 -7.0194 
-60.5995 -3.7363 77.9345 
0.921188 6.08851 -3.35941 
53.6974 20.7967 -54.3556 
-0.141919 -0.0441593 -0.000516856 
-12.0194 2.46191 -22.7903 
-38.9035 2.17638 116.295 
62.0823 -45.6083 100.461 
-11.5278 3.11149 0.326001 
55.7555 -36.0047 -78.056 
167.54 -114.745 -37.7015 
16.8415 -10.4258 -50.7197 
-24.2887 5.57657 -30.887 
-28.1707 -27.3874 -113.592 
6.50142 -5.1967 -25.2329 
-7.51299 -3.10143 -16.256 
2.05913 3.2028 -2.69964 
5.29045 -7.93215 -13.5549 
19.2294 12.9441 -144.344 
27.7093 7.86064 -25.2368 
45.2451 -21.3036 -115.33 
32.142 -42.3924 106.85 
-33.6422 38.4154 -68.8964 
-0.60582 0.716285 -22.9262 
2.24207 -14.5199 32.5504 
5.81885 -2.11236 -14.2019 
15.1104 -55.1202 195.845 
10.1995 -14.582 -36.5825 
40.9876 -10.8706 -55.8618 
30.4587 7.75352 -82.0861 
69.2612 -93.5823 341.309 
120.526 -104.702 667.237 
0.124185 0.365355 -3.72799 
-3.11888 -16.013 -1.91365 
1.07597 11.7336 1.63171 
4.68893 -96.0118 1.35888 
-0.511091 -20.2902 -19.814 
56.0868 -27.5947 -40.5654 
-56.1686 161.035 -50.4737 
8.92246 109.503 -105.028 
-12.1158 19.2987 -22.7013 
-25.3744 4.31338 -24.2565 
-1.68709 -0.394116 4.4171 
-0.0815461 0.52361 -2.26585 
47.7349 -134.907 -737.789 
38.7394 -6.34357 -41.7648 
-5.38605 -12.235 -15.0494 
0.52241 -0.728113 -0.00297224 
-3.40391 -5.1966 -8.24027 
11.3838 14.5049 20.5235 
45.7401 13.2629 25.2084 
2.29753 0.670949 0.822748 
16.6763 5.25773 -18.6466 
15.3289 -7.2897 -23.3513 
1.13996 11.2395 -5.2551 
-1.7261 -1.12214 -3.20307 
-7.73659 -10.6246 -13.9979 
20.6718 9.39164 25.4172 
-36.4079 -364.966 -413.19 
-21.2682 -364.345 -241.817 
-6.06733 -6.53298 -21.1399 
2.40732 7.24998 -16.2083 
19.5952 -199.808 -112.704 
184.845 -405.792 367.105 
18.7832 19.8366 -51.9556 
-6.65651 2.58216 14.6891 
-3.27532 -0.00118421 -5.57518 
4.65561 1.13455 -1.76765 
-8.4986 -55.8355 29.6331 
-14.3447 13.9666 -5.31745 
-80.8629 -180.063 365.988 
-104.796 87.3502 372.022 
28.9806 -30.2057 -55.1226 
9.99495 -7.32134 -13.4445 
30.9504 61.4941 -243.459 
23.0005 -1.76901 -26.6036 
3.80479 28.6726 -65.0418 
0.14233 3.85578 -11.0631 
-9.94668 -0.138414 11.8563 
7.88851 -13.8126 -5.78791 
-31.2448 10.0449 29.6446 
62.9586 5.32942 -60.5292 
-5.7955 4.04855 -15.2092 
-1319.88 478.659 1819.04 
58.3189 79.6631 56.609 
49.8394 -173.175 130.387 
1.99141 23.2876 128.811 
-0.230881 -0.256869 1.11059 
-0.113202 0.49682 1.66385 
2.12383 1.37006 -9.68341 
4.87557 0.136985 -12.7217 
11.4858 8.37601 -34.2261 
0.0325498 0.174111 1.13518 
-1.79132 3.56422 0.61389 
6.16557 10.9488 -14.7388 
1115.67 338.593 -1646.7 
256.437 651.939 -296.692 
-5.34641 -12.0169 -16.4931 
0.986972 0.228193 -0.680643 
0.459792 -0.27601 3.31282 
0.794297 -0.102251 0.796777 
483.73 -352.214 -602.172 
1.81719 4.00408 -0.389619 
-1.38088 7.02613 -7.42717 
1.75743 2.08307 14.6735 
-67.0443 -240.301 -11.2763 
-0.777087 -0.458977 0.162341 
-1.63474 1.84987 -0.952629 
0.426656 -0.494822 1.95045 
-62.3091 -14.5389 33.8374 
40.14 13.2235 -20.3965 
-28.2289 -61.6244 14.3266 
-1.34373 1.40164 3.16868 
-2.31487 3.28826 -4.31688 
0.0499249 -0.177229 -0.483841 
-28.7699 -18.8154 -22.4555 
-0.232805 -0.707288 6.77071 
0.723263 1.11104 -0.636613 
1.23803 -2.86451 -4.01154 
-5.09165 4.21918 2.47913 
0.521309 -0.069107 -0.83952 
1.33705 -17.3594 -17.4169 
24.5185 11.0305 4.55107 
3.03089 -3.17996 -18.3041 
1.64647 1.33249 -2.64573 
0.932876 0.764802 2.61642 
26.057 31.3394 -16.4203 
27.7168 7.35336 7.25378 
-0.367213 0.704017 1.52108 
1.50455 -1.44257 -9.22048 
-243.813 41.0485 -867.589 
11.4131 235.27 538.911 
2.14865 1.59097 -1.83634 
0.299338 0.259651 1.66997 
-175.478 -204.74 -77.6608 
-86.7434 129.058 -61.4372 
-0.444726 0.417108 2.45114 
-49.6538 25.4753 62.0558 
-19.4234 -15.4328 -19.0392 
0.756912 -0.541264 4.76252 
21.6219 56.1894 212.643 
-2.66036 -1.44833 6.00261 
-84.9135 -2.90953 -11.9689 
-28.8766 -13.8611 6.12432 
-5.99181 -6.26739 -4.47903 
-738.235 -630.536 1023.28 
-80.0026 -19.8096 -6.75035 
-3.66103 8.03946 -8.17226 
-12.5379 105.1 -29.5509 
49.5647 63.1178 2.75086 
15.8377 60.7057 -15.218 
-5.98277 56.5763 17.7456 
-7.8402 -4.18538 32.638 
6.53699 17.7931 21.7823 
-9.52806 -82.4719 -46.6338 
0.00135673 -12.0698 -6.24196 
3.88689 -6.54917 0.75697 
-13.9675 -22.4437 11.2261 
-13.5456 -25.0869 27.9028 
-2.80383e-08 -2.40261e-08 13.6117 
176.967 -18.8899 777.758 
0.0609099 0.0085184 13.4837 
9.80522 -26.2917 120.41 
0.348288 0.202798 12.9937 
-9.56362 -37.1036 212.54 
0.271192 -1.35361 7.99804 
-0.28662 1.29577 36.675 
0.100032 0.0479466 13.2841 
0.547912 5.09675 44.1079 
0.382543 2.22681 18.6109 
-5.12472 3.18696 40.2147 
-3.93099 -2.97135 12.0503 
-2.33432e-14 1.79662e-14 13.6117 
-104.745 -97.1795 156.517 
0.797658 17.5993 20.1705 
-17.0006 -3.08865 98.3794 
4.4343 8.69123 100.64 
2.36273 2.86218 21.8938 
2.62904 4.01526 22.563 
-0.781149 0.733479 13.7858 
1.83086 -1.00869 12.9955 
-13.8797 0.896381 1.86136 
-8.20587 0.0644377 41.0139 
10.4756 0.0453973 34.6473 
-9.81444 25.4952 43.7819 
3.69991 6.30115 72.8384 
-17.0885 -26.1356 168.296 
-2.79583 -26.831 114.469 
28.3455 -223.943 442.981 
364.13 214.278 712.932 
1.19594 6.18672 22.6258 
37.2949 -10.2486 49.0549 
2.43003 1.51049 67.5178 
-6.55111 -7.54472 16.6929 
6.6947e-15 3.15463e-15 13.6117 
0.210446 -2.98606 14.7225 
-2.64807e-16 -1.98722e-17 13.6117 
3.38164 8.0869 49.5808 
-14.7601 1.34371 48.9761 
87.3417 196.248 606.195 
20.5921 -9.89847 22.6592 
1.27857e-15 1.52071e-14 13.6117 
-12.241 -24.3148 12.9243 
-0.824824 0.68801 13.439 
-0.000241949 -0.0182581 13.6269 
12.7238 -3.99918 73.1208 
VECTORS moment double
0 0 0 
0 0 0 
0 0 0 
0 0 0 
0 0 0 
0 0 0 
0 0 0 
0 0 0 
0 0 0 
0 0 0 
0 0 0 
0 0 0 
0 0 0 
0 0 0 
0 0 0 
0 0 0 
0 0 0 
0 0 0 
0 0 0 
0 0 0 
0 0 0 
0 0 0 
0 0 0 
0 0 0 
0 0 0 
0 0 0 
0 0 0 
0 0 0 
0 0 0 
0 0 0 
0 0 0 
0 0 0 
0 0 0 
0 0 0 
0 0 0 
0 0 0 
0 0 0 
0 0 0 
0 0 0 
0 0 0 
0 0 0 
0 0 0 
0 0 0 
0 0 0 
0 0 0 
0 0 0 
0 0 0 
0 0 0 
0 0 0 
0 0 0 
0 0 0 
0 0 0 
0 0 0 
0 0 0 
0 0 0 
0 0 0 
0 0 0 
0 0 0 
0 0 0 
0 0 0 
0 0 0 
0 0 0 
0 0 0 
0 0 0 
0 0 0 
0 0 0 
0 0 0 
0 0 0 
0 0 0 
0 0 0 
0 0 0 
0 0 0 
0 0 0 
0 0 0 
0 0 0 
0 0 0 
0 0 0 
0 0 0 
0 0 0 
0 0 0 
0 0 0 
0 0 0 
0 0 0 
0 0 0 
0 0 0 
0 0 0 
0 0 0 
0 0 0 
0 0 0 
0 0 0 
0 0 0 
0 0 0 
0 0 0 
0 0 0 
0 0 0 
0 0 0 
0 0 0 
0 0 0 
0 0 0 
0 0 0 
0 0 0 
0 0 0 
0 0 0 
0 0 0 
0 0 0 
0 0 0 
0 0 0 
0 0 0 
0 0 0 
0 0 0 
0 0 0 
0 0 0 
0 0 0 
0 0 0 
0 0 0 
0 0 0 
0 0 0 
0 0 0 
0 0 0 
0 0 0 
0 0 0 
0 0 0 
0 0 0 
0 0 0 
0 0 0 
0 0 0 
0 0 0 
0 0 0 
0 0 0 
0 0 0 
0 0 0 
0 0 0 
0 0 0 
0 0 0 
0 0 0 
0 0 0 
0 0 0 
0 0 0 
0 0 0 
0 0 0 
0 0 0 
0 0 0 
0 0 0 
0 0 0 
0 0 0 
0 0 0 
0 0 0 
0 0 0 
0 0 0 
0 0 0 
0 0 0 
0 0 0 
0 0 0 
0 0 0 
0 0 0 
0 0 0 
0 0 0 
0 0 0 
0 0 0 
0 0 0 
0 0 0 
0 0 0 
0 0 0 
0 0 0 
0 0 0 
0 0 0 
0 0 0 
0 0 0 
0 0 0 
0 0 0 
0 0 0 
0 0 0 
0 0 0 
0 0 0 
0 0 0 
0 0 0 
0 0 0 
0 0 0 
0 0 0 
0 0 0 
0 0 0 
0 0 0 
0 0 0 
0 0 0 
0 0 0 
0 0 0 
0 0 0 
0 0 0 
0 0 0 
0 0 0 
0 0 0 
0 0 0 
0 0 0 
0 0 0 
0 0 0 
0 0 0 
0 0 0 
0 0 0 
0 0 0 
0 0 0 
0 0 0 
0 0 0 
0 0 0 
0 0 0 
0 0 0 
0 0 0 
0 0 0 
0 0 0 
0 0 0 
0 0 0 
0 0 0 
0 0 0 
0 0 0 
0 0 0 
0 0 0 
0 0 0 
0 0 0 
0 0 0 
0 0 0 
0 0 0 
0 0 0 
0 0 0 
0 0 0 
0 0 0 
0 0 0 
0 0 0 
0 0 0 
0 0 0 
0 0 0 
0 0 0 
0 0 0 
0 0 0 
0 0 0 
0 0 0 
0 0 0 
0 0 0 
0 0 0 
0 0 0 
0 0 0 
0 0 0 
0 0 0 
0 0 0 
0 0 0 
0 0 0 
0 0 0 
0 0 0 
0 0 0 
0 0 0 
0 0 0 
0 0 0 
0 0 0 
0 0 0 
0 0 0 
0 0 0 
0 0 0 
0 0 0 
0 0 0 
0 0 0 
0 0 0 
0 0 0 
SCALARS num_collisions int 1
LOOKUP_TABLE default
1 
1 
1 
1 
1 
1 
1 
1 
1 
1 
1 
1 
1 
1 
1 
1 
1 
1 
1 
1 
1 
1 
1 
1 
1 
1 
1 
1 
1 
1 
1 
1 
1 
1 
1 
1 
1 
1 
1 
1 
1 
1 
1 
1 
1 
1 
1 
1 
1 
1 
1 
1 
1 
1 
1 
1 
1 
1 
1 
1 
1 
1 
1 
1 
1 
1 
1 
1 
1 
1 
1 
1 
1 
1 
1 
1 
1 
1 
1 
1 
1 
1 
1 
1 
1 
1 
1 
1 
1 
1 
1 
1 
1 
1 
1 
1 
1 
1 
1 
1 
1 
1 
1 
1 
1 
1 
1 
1 
1 
1 
1 
1 
1 
1 
1 
1 
1 
1 
1 
1 
1 
1 
1 
1 
1 
1 
1 
1 
1 
1 
1 
1 
1 
1 
1 
1 
1 
1 
1 
1 
1 
1 
1 
1 
1 
1 
1 
1 
1 
1 
1 
1 
1 
1 
1 
1 
1 
1 
1 
1 
1 
1 
1 
1 
1 
1 
1 
1 
1 
1 
1 
1 
1 
1 
1 
1 
1 
1 
1 
1 
1 
1 
1 
1 
1 
1 
1 
1 
1 
1 
1 
1 
1 
1 
1 
1 
1 
1 
1 
1 
1 
1 
1 
1 
1 
1 
1 
1 
1 
1 
1 
1 
1 
1 
1 
1 
1 
1 
1 
1 
1 
1 
1 
1 
1 
1 
1 
1 
1 
1 
1 
1 
1 
1 
1 
1 
1 
1 
1 
1 
1 
1 
1 
1 
1 
1 
1 
1 
1 
1 
1 
1 
1 
1 
1 
1 
1 
1 
1 
1 
VECTORS pos double
-0.407251 -0.415112 -0.426229 
-0.388578 -0.00460265 -0.422265 
-0.414972 0.100961 -0.418633 
-0.449994 0.146958 -0.409326 
-0.42001 0.37675 -0.421863 
-0.267955 -0.195382 -0.424913 
-0.30171 0.362758 -0.430029 
-0.224181 0.336557 -0.444087 
-0.0904052 -0.379622 -0.443407 
-0.0057295 -0.404559 -0.456931 
-0.0326427 -0.051511 -0.422477 
-0.0171181 0.151753 -0.426983 
0.0709189 0.155536 -0.423152 
0.216452 -0.413404 -0.424016 
0.163609 -0.218681 -0.428524 