# vtk DataFile Version 2.0
Generated by NetDEM
ASCII 
DATASET POLYDATA
POINTS 382 double
-0.41692 -0.40538 -0.462854 
-0.403378 -0.399419 -0.38839 
-0.403333 -0.203333 -0.465275 
-0.403333 -0.203333 -0.380548 
-0.408476 -0.00750245 -0.462951 
-0.403289 -0.00965694 -0.389293 
-0.402763 0.397237 -0.465276 
-0.402763 0.397237 -0.380549 
-0.265548 -0.432081 -0.459384 
-0.305489 -0.408311 -0.388289 
-0.203538 -0.203538 -0.465275 
-0.203538 -0.203538 -0.380548 
-0.203218 -0.00321788 -0.465275 
-0.203218 -0.00321788 -0.380548 
-0.17438 0.205895 -0.458659 
-0.108873 0.176857 -0.381327 
-0.17438 0.205895 -0.458659 
-0.185916 0.197491 -0.379115 
-0.246818 0.369087 -0.465051 
-0.157087 0.416497 -0.445647 
-0.0411468 -0.397265 -0.456572 
-0.0576926 -0.393068 -0.381535 
-0.00366947 -0.203669 -0.465275 
-0.00366947 -0.203669 -0.380548 
-0.00360232 -0.00360232 -0.465275 
-0.00360232 -0.00360232 -0.380548 
-0.0411326 0.396429 -0.464193 
-0.0973937 0.442455 -0.366753 
0.191678 -0.397291 -0.463565 
0.195099 -0.394519 -0.391367 
0.172868 -0.209316 -0.463437 
0.175131 -0.189675 -0.386203 
0.173873 -0.00941148 -0.461737 
0.187562 -0.0112881 -0.383636 
0.397045 -0.400894 -0.450075 
0.39676 -0.450132 -0.363128 
0.388042 0.0780037 -0.450012 
0.450004 0.105292 -0.376421 
-0.403378 -0.399419 -0.38839 
-0.402807 -0.403189 -0.316051 
-0.403333 -0.203333 -0.380548 
-0.403333 -0.203333 -0.29583 
-0.403289 -0.00965694 -0.389293 
-0.377873 -0.00119443 -0.311806 
-0.402763 0.397237 -0.380549 
-0.402763 0.397237 -0.295831 
-0.305489 -0.408311 -0.388289 
-0.402807 -0.403189 -0.316051 
-0.305489 -0.408311 -0.388289 
-0.242206 -0.395419 -0.326876 
-0.203538 -0.203538 -0.380548 
-0.203538 -0.203538 -0.29583 
-0.203218 -0.00321788 -0.380548 
-0.203218 -0.00321788 -0.29583 
-0.157087 0.416497 -0.445647 
-0.209823 0.451713 -0.385791 
-0.0576926 -0.393068 -0.381535 
-0.149095 -0.414911 -0.372075 
-0.0576926 -0.393068 -0.381535 
0.0266563 -0.429455 -0.344013 
-0.00366947 -0.203669 -0.380548 
-0.00366947 -0.203669 -0.29583 
-0.00360232 -0.00360232 -0.380548 
-0.00360232 -0.00360232 -0.29583 
0.195099 -0.394519 -0.391367 
0.185547 -0.396086 -0.317985 
0.187562 -0.0112881 -0.383636 
0.189329 0.00571767 -0.309622 
0.39676 -0.450132 -0.363128 
0.391157 -0.423656 -0.267059 
0.411989 0.354983 -0.451806 
0.415158 0.379599 -0.348239 
-0.402807 -0.403189 -0.316051 
-0.41601 -0.408836 -0.24347 
-0.403333 -0.203333 -0.29583 
-0.403333 -0.203333 -0.211129 
-0.377873 -0.00119443 -0.311806 
-0.370919 0.00799741 -0.236197 
-0.402763 0.397237 -0.295831 
-0.402763 0.397237 -0.21113 
-0.203538 -0.203538 -0.29583 
-0.203538 -0.203538 -0.211128 
-0.203218 -0.00321788 -0.29583 
-0.203218 -0.00321788 -0.211129 
-0.185916 0.197491 -0.379115 
-0.163894 0.160183 -0.280739 
-0.209823 0.451713 -0.385791 
-0.25997 0.439654 -0.311782 
0.0266563 -0.429455 -0.344013 
0.0979573 -0.437107 -0.290535 
-0.00366947 -0.203669 -0.29583 
-0.00366947 -0.203669 -0.211128 
-0.00360232 -0.00360232 -0.29583 
-0.00360232 -0.00360232 -0.211128 
0.185547 -0.396086 -0.317985 
0.209764 -0.396387 -0.229458 
0.185547 -0.396086 -0.317985 
0.0979573 -0.437107 -0.290535 
0.189329 0.00571767 -0.309622 
0.192503 0.00594302 -0.236358 
0.391157 -0.423656 -0.267059 
0.39314 -0.326617 -0.243687 
-0.41601 -0.408836 -0.24347 
-0.417152 -0.412361 -0.154782 
-0.403333 -0.203333 -0.211129 
-0.403333 -0.203333 -0.12645 
-0.370919 0.00799741 -0.236197 
-0.38554 -0.0019611 -0.15736 
-0.402763 0.397237 -0.21113 
-0.402763 0.397237 -0.126451 
-0.149095 -0.414911 -0.372075 
-0.162767 -0.40603 -0.272151 
-0.203538 -0.203538 -0.211128 
-0.203538 -0.203538 -0.12645 
-0.203218 -0.00321788 -0.211129 
-0.203218 -0.00321788 -0.126451 
0.0979573 -0.437107 -0.290535 
0.0408522 -0.384226 -0.25637 
-0.00366947 -0.203669 -0.211128 
-0.00366947 -0.203669 -0.12645 
-0.00360232 -0.00360232 -0.211128 
-0.00360232 -0.00360232 -0.12645 
0.209764 -0.396387 -0.229458 
0.20361 -0.400776 -0.158162 
0.209764 -0.396387 -0.229458 
0.22419 -0.303907 -0.211903 
0.192503 0.00594302 -0.236358 
0.185929 0.00252254 -0.163684 
0.39314 -0.326617 -0.243687 
0.396714 -0.274786 -0.158418 
0.415158 0.379599 -0.348239 
0.40102 0.459207 -0.317957 
-0.417152 -0.412361 -0.154782 
-0.414965 -0.40603 -0.0787112 
-0.403333 -0.203333 -0.12645 
-0.403333 -0.203333 -0.0417993 
-0.38554 -0.0019611 -0.15736 
-0.435092 -0.00856798 -0.0978251 
-0.402763 0.397237 -0.126451 
-0.402763 0.397237 -0.0418007 
-0.203538 -0.203538 -0.12645 
-0.203538 -0.203538 -0.0418 
-0.203218 -0.00321788 -0.126451 
-0.203218 -0.00321788 -0.0418005 
0.0408522 -0.384226 -0.25637 
-0.0418826 -0.372608 -0.234221 
-0.00366947 -0.203669 -0.12645 
-0.00366947 -0.203669 -0.0417995 
-0.00360232 -0.00360232 -0.12645 
-0.00360232 -0.00360232 -0.0417994 
-0.0288687 0.211645 -0.274191 
0.00878493 0.209117 -0.208035 
0.20361 -0.400776 -0.158162 
0.209242 -0.399534 -0.0786048 
0.22419 -0.303907 -0.211903 
0.204764 -0.251905 -0.130062 
0.185929 0.00252254 -0.163684 
0.182561 -0.00117263 -0.0864578 
-0.414965 -0.40603 -0.0787112 
-0.410737 -0.400959 -0.000761673 
-0.403333 -0.203333 -0.0417993 
-0.403333 -0.203333 0.04282 
-0.435092 -0.00856798 -0.0978251 
-0.42966 -0.00723583 0.00343016 
-0.402763 0.397237 -0.0418007 
-0.402763 0.397237 0.0428186 
-0.203538 -0.203538 -0.0418 
-0.203538 -0.203538 0.0428193 
-0.203218 -0.00321788 -0.0418005 
-0.203218 -0.00321788 0.0428187 
-0.0418826 -0.372608 -0.234221 
-0.0330513 -0.396819 -0.142476 
-0.00366947 -0.203669 -0.0417995 
-0.00366947 -0.203669 0.0428196 
-0.00360232 -0.00360232 -0.0417994 
-0.00360232 -0.00360232 0.0428199 
0.209242 -0.399534 -0.0786048 
0.184772 -0.411768 -0.0105269 
0.182561 -0.00117263 -0.0864578 
0.187051 -0.00303677 -0.00743989 
0.169712 0.369108 -0.223987 
0.19486 0.373586 -0.127448 
0.394789 -0.181844 -0.19509 
0.394342 -0.11505 -0.120706 
0.394789 -0.181844 -0.19509 
0.396714 -0.274786 -0.158418 
0.44998 0.0844328 -0.210705 
0.402562 0.13512 -0.13873 
-0.410737 -0.400959 -0.000761673 
-0.409666 -0.401024 0.0772851 
-0.403333 -0.203333 0.04282 
-0.403333 -0.203333 0.127407 
-0.42966 -0.00723583 0.00343016 
-0.413913 -0.000396991 0.073026 
-0.402763 0.397237 0.0428186 
-0.402763 0.397237 0.127406 
-0.12359 -0.401957 -0.182009 
-0.0330513 -0.396819 -0.142476 
-0.203538 -0.203538 0.0428193 
-0.203538 -0.203538 0.127407 
-0.203218 -0.00321788 0.0428187 
-0.203218 -0.00321788 0.127406 
-0.00366947 -0.203669 0.0428196 
-0.00366947 -0.203669 0.127407 
-0.00360232 -0.00360232 0.0428199 
-0.00360232 -0.00360232 0.127407 
0.184772 -0.411768 -0.0105269 
0.197107 -0.406546 0.0844248 
0.187051 -0.00303677 -0.00743989 
0.193425 -0.00741874 0.0691035 
0.396714 -0.274786 -0.158418 
0.39639 -0.309725 -0.0647765 
-0.409666 -0.401024 0.0772851 
-0.411527 -0.404043 0.155135 
-0.403333 -0.203333 0.127407 
-0.403333 -0.203333 0.211964 
-0.413913 -0.000396991 0.073026 
-0.397485 -0.00165513 0.147083 
-0.402763 0.397237 0.127406 
-0.402763 0.397237 0.211963 
-0.203538 -0.203538 0.127407 
-0.203538 -0.203538 0.211964 
-0.203218 -0.00321788 0.127406 
-0.203218 -0.00321788 0.211963 
-0.00366947 -0.203669 0.127407 
-0.00366947 -0.203669 0.211964 
-0.00360232 -0.00360232 0.127407 
-0.00360232 -0.00360232 0.211964 
0.197107 -0.406546 0.0844248 
0.197048 -0.404046 0.155297 
0.193425 -0.00741874 0.0691035 
0.194368 -0.00994894 0.142946 
0.39639 -0.309725 -0.0647765 
0.396655 -0.250913 0.0160777 
0.392818 0.44436 -0.0771163 
0.39603 0.396809 -0.00464379 
-0.411527 -0.404043 0.155135 
-0.408924 -0.410212 0.234348 
-0.403333 -0.203333 0.211964 
-0.403333 -0.203333 0.296493 
-0.397485 -0.00165513 0.147083 
-0.402329 -0.00452195 0.222777 
-0.402763 0.397237 0.211963 
-0.402763 0.397237 0.296492 
-0.203538 -0.203538 0.211964 
-0.203538 -0.203538 0.296494 
-0.203218 -0.00321788 0.211963 
-0.203218 -0.00321788 0.296493 
-0.00366947 -0.203669 0.211964 
-0.00366947 -0.203669 0.296494 
-0.00360232 -0.00360232 0.211964 
-0.00360232 -0.00360232 0.296494 
0.197048 -0.404046 0.155297 
0.201865 -0.399034 0.230632 
0.194368 -0.00994894 0.142946 
0.191511 -0.00647875 0.223027 
0.19486 0.373586 -0.127448 
0.126429 0.365807 -0.0554036 
-0.408924 -0.410212 0.234348 
-0.403092 -0.400258 0.318974 
-0.403333 -0.203333 0.465501 
-0.403333 -0.203333 0.381003 
-0.402329 -0.00452195 0.222777 
-0.405898 -0.00540559 0.308118 
-0.402763 0.397237 0.4655 
-0.402763 0.397237 0.381002 
-0.203538 -0.203538 0.465501 
-0.203538 -0.203538 0.381004 
-0.203218 -0.00321788 0.465501 
-0.203218 -0.00321788 0.381003 
-0.00366947 -0.203669 0.465501 
-0.00366947 -0.203669 0.381003 
-0.00360232 -0.00360232 0.465501 
-0.00360232 -0.00360232 0.381004 
0.201865 -0.399034 0.230632 
0.192025 -0.400423 0.308288 
0.191511 -0.00647875 0.223027 
0.193052 -0.00253165 0.301021 
-0.403092 -0.400258 0.318974 
-0.404744 -0.404706 0.399583 
-0.403333 -0.203333 0.296493 
-0.403333 -0.203333 0.381003 
-0.402763 0.397237 0.296492 
-0.402763 0.397237 0.381002 
-0.203538 -0.203538 0.296494 
-0.203538 -0.203538 0.381004 
-0.203218 -0.00321788 0.296493 
-0.203218 -0.00321788 0.381003 
-0.00366947 -0.203669 0.296494 
-0.00366947 -0.203669 0.381003 
-0.00360232 -0.00360232 0.296494 
-0.00360232 -0.00360232 0.381004 
0.192025 -0.400423 0.308288 
0.198161 -0.402165 0.391609 
0.193052 -0.00253165 0.301021 
0.193777 -0.00317696 0.376779 
-0.42966 -0.00723583 0.00343016 
-0.500003 0.0153708 0.0213502 
0.450004 0.105292 -0.376421 
0.5 0.105255 -0.376418 
0.398793 -0.45 -0.0847643 
0.39879 -0.5 -0.0847542 
0.39676 -0.450132 -0.363128 
0.39676 -0.5 -0.363122 
0.40102 0.459207 -0.317957 
0.419858 0.500002 -0.341233 
-0.209823 0.451713 -0.385791 
-0.185592 0.500004 -0.388437 
-0.00360232 -0.00360232 -0.465275 
-0.00360232 -0.00360232 -0.5 
0.173873 -0.00941148 -0.461737 
0.205665 -0.00249007 -0.500034 
-0.408476 -0.00750245 -0.462951 
-0.395049 -0.00932706 -0.500027 
0.388042 0.0780037 -0.450012 
0.388045 0.0779758 -0.5 
-0.181488 -0.359897 -0.454212 
-0.191779 -0.364082 -0.500003 
0.397045 -0.400894 -0.450075 
0.397044 -0.400892 -0.5 
-0.41692 -0.40538 -0.462854 
-0.395855 -0.395946 -0.500036 
0.00365616 0.255692 -0.444217 
-0.0295197 0.214393 -0.500002 
0.191678 -0.397291 -0.463565 
0.206075 -0.401169 -0.500072 
0.0409768 0.44993 -0.440342 
0.0503904 0.452206 -0.500003 
-0.0411326 0.396429 -0.464193 
-0.0540609 0.404028 -0.500008 
-0.246818 0.369087 -0.465051 
-0.227686 0.368653 -0.500004 
-0.265548 -0.432081 -0.459384 
-0.260742 -0.419199 -0.500008 
-0.203218 -0.00321788 -0.465275 
-0.203218 -0.00321788 -0.5 
0.347843 -0.140919 -0.450007 
0.347876 -0.140871 -0.5 
-0.0411468 -0.397265 -0.456572 
-0.0191356 -0.387075 -0.500006 
-0.301665 0.160801 -0.465044 
-0.310628 0.160213 -0.500003 
-0.402763 0.397237 -0.465276 
-0.402763 0.397237 -0.5 
-0.403333 -0.203333 -0.465275 
-0.403333 -0.203333 -0.5 
-0.00366947 -0.203669 -0.465275 
-0.00366947 -0.203669 -0.5 
-0.17438 0.205895 -0.458659 
-0.195502 0.214351 -0.500009 
-0.203538 -0.203538 -0.465275 
-0.203538 -0.203538 -0.5 
0.439424 0.272881 -0.45207 
0.409266 0.290943 -0.50005 
-0.157087 0.416497 -0.445647 
-0.136538 0.406303 -0.500006 
0.0306216 0.186317 -0.452926 
0.0350448 0.16966 -0.500003 
0.159362 0.210286 -0.465036 
0.163244 0.218353 -0.500003 
0.197133 0.112251 -0.455899 
0.208868 0.144601 -0.500002 
0.411989 0.354983 -0.451806 
0.407154 0.35834 -0.500005 
0.172868 -0.209316 -0.463437 
0.171907 -0.19443 -0.500007 
0.280623 0.0631628 -0.441115 
0.294981 0.0527971 -0.500003 
0.370237 0.439303 -0.464842 
0.375508 0.445524 -0.500003 
-0.403333 -0.203333 0.465501 
-0.403333 -0.203333 0.5 
-0.402763 0.397237 0.4655 
-0.402763 0.397237 0.5 
-0.00360232 -0.00360232 0.465501 
-0.00360232 -0.00360232 0.5 
-0.00366947 -0.203669 0.465501 
-0.00366947 -0.203669 0.5 
-0.203538 -0.203538 0.465501 
-0.203538 -0.203538 0.5 
-0.203218 -0.00321788 0.465501 
-0.203218 -0.00321788 0.5 
LINES 191 573
2 0 1
2 2 3
2 4 5
2 6 7
2 8 9
2 10 11
2 12 13
2 14 15
2 16 17
2 18 19
2 20 21
2 22 23
2 24 25
2 26 27
2 28 29
2 30 31
2 32 33
2 34 35
2 36 37
2 38 39
2 40 41
2 42 43
2 44 45
2 46 47
2 48 49
2 50 51
2 52 53
2 54 55
2 56 57
2 58 59
2 60 61
2 62 63
2 64 65
2 66 67
2 68 69
2 70 71
2 72 73
2 74 75
2 76 77
2 78 79
2 80 81
2 82 83
2 84 85
2 86 87
2 88 89
2 90 91
2 92 93
2 94 95
2 96 97
2 98 99
2 100 101
2 102 103
2 104 105
2 106 107
2 108 109
2 110 111
2 112 113
2 114 115
2 116 117
2 118 119
2 120 121
2 122 123
2 124 125
2 126 127
2 128 129
2 130 131
2 132 133
2 134 135
2 136 137
2 138 139
2 140 141
2 142 143
2 144 145
2 146 147
2 148 149
2 150 151
2 152 153
2 154 155
2 156 157
2 158 159
2 160 161
2 162 163
2 164 165
2 166 167
2 168 169
2 170 171
2 172 173
2 174 175
2 176 177
2 178 179
2 180 181
2 182 183
2 184 185
2 186 187
2 188 189
2 190 191
2 192 193
2 194 195
2 196 197
2 198 199
2 200 201
2 202 203
2 204 205
2 206 207
2 208 209
2 210 211
2 212 213
2 214 215
2 216 217
2 218 219
2 220 221
2 222 223
2 224 225
2 226 227
2 228 229
2 230 231
2 232 233
2 234 235
2 236 237
2 238 239
2 240 241
2 242 243
2 244 245
2 246 247
2 248 249
2 250 251
2 252 253
2 254 255
2 256 257
2 258 259
2 260 261
2 262 263
2 264 265
2 266 267
2 268 269
2 270 271
2 272 273
2 274 275
2 276 277
2 278 279
2 280 281
2 282 283
2 284 285
2 286 287
2 288 289
2 290 291
2 292 293
2 294 295
2 296 297
2 298 299
2 300 301
2 302 303
2 304 305
2 306 307
2 308 309
2 310 311
2 312 313
2 314 315
2 316 317
2 318 319
2 320 321
2 322 323
2 324 325
2 326 327
2 328 329
2 330 331
2 332 333
2 334 335
2 336 337
2 338 339
2 340 341
2 342 343
2 344 345
2 346 347
2 348 349
2 350 351
2 352 353
2 354 355
2 356 357
2 358 359
2 360 361
2 362 363
2 364 365
2 366 367
2 368 369
2 370 371
2 372 373
2 374 375
2 376 377
2 378 379
2 380 381
POINT_DATA 382
SCALARS id int 1
LOOKUP_TABLE default
0
25
1
26
2
27
4
29
5
30
6
31
7
32
8
83
8
58
9
34
10
35
11
36
12
37
14
114
15
40
16
41
17
42
20
45
23
48
25
50
26
51
27
52
29
54
30
50
30
105
31
56
32
57
34
59
35
80
35
60
36
61
37
62
40
65
42
67
45
70
49
99
50
75
51
76
52
77
54
79
56
81
57
82
58
108
59
84
60
85
61
86
62
87
65
90
65
85
67
92
70
95
75
100
76
101
77
102
79
104
80
130
81
106
82
107
85
110
86
111
87
112
90
115
90
116
92
117
95
170
99
124
100
125
101
126
102
127
104
129
106
131
107
132
110
135
111
136
112
137
113
138
115
140
116
141
117
142
125
150
126
151
127
152
129
154
131
156
132
157
135
160
136
161
137
162
140
165
142
167
144
219
146
171
146
170
148
223
150
175
151
176
152
177
154
179
155
160
156
181
157
182
161
186
162
187
165
190
167
192
170
195
175
200
176
201
177
202
179
204
181
206
182
207
186
211
187
212
190
215
192
217
195
221
199
224
200
225
201
251
202
227
204
254
206
256
207
257
211
261
212
262
215
240
217
242
219
269
225
250
226
276
227
252
229
279
231
281
232
282
236
286
237
287
240
265
242
267
250
275
251
276
254
279
256
281
257
282
261
286
262
287
265
290
267
292
152
0
48
1
145
2
45
2
124
3
59
3
12
4
17
4
2
4
23
4
55
4
20
4
0
4
38
4
15
4
89
4
14
4
9
4
5
4
7
4
47
4
10
4
33
4
4
4
1
4
11
4
8
4
6
4
74
4
34
4
13
4
18
4
43
4
49
4
16
4
68
4
24
4
226
5
229
5
237
5
236
5
231
5
232
5
CELL_DATA 191
VECTORS force double
-9.27869 3.71289 -130.966 
0 0 -30552.1 
-8.91858 -7.04857 -106.963 
0 0 -30552.7 
3.9552 0.463375 -18.0365 
0 0 -30551.7 
0 0 -30552.6 
-1.73715 0.606945 -3.45987 
-4.46915 4.09035 -21.9756 
-12.0299 -16.6755 -19.7318 
3.41915 0.658873 -14.0808 
0 0 -30552.1 
0 0 -30551.7 
1.9131 -3.63675 -12.8232 
60.4736 9.33584 -268.347 
-1.08176 0.955536 -13.1633 
3.11042 9.78084 -21.7658 
2.23364 49.9721 -177.507 
7.17409 1.64895 4.34921 
-0.438757 0.927327 -123.102 
0 0 -30569.7 
-7.62462 -4.03817 -98.0594 
0 0 -30570.2 
10.2997 0.34301 2.7709 
-5.04538 -1.05141 -5.7462 
0 0 -30568.9 
0 0 -30569.8 
7.23592 -18.7768 -33.0482 
6.14482 -0.820789 -2.28749 
-2.73185 2.25567 -3.74945 
0 0 -30569.3 
0 0 -30569.2 
33.6683 -14.5427 -226.39 
1.2832 5.64526 -172.934 
14.8013 -278.337 -335.626 
-0.589179 -1.71276 -8.5575 
9.75297 2.53883 -113.678 
0 0 -30601.2 
0.463892 1.98404 -86.4339 
0 0 -30601.4 
0 0 -30602.5 
0 0 -30601.1 
0.126104 3.74004 -10.1746 
4.8388 -2.25315 -12.1451 
2.86958 -1.35944 -7.06964 
0 0 -30600.8 
0 0 -30602.4 
-19.2252 -14.575 -124.258 
52.7881 -0.457999 -58.2468 
2.7626 2.37776 -48.9875 
-0.474679 -276.411 -237.684 
2.61746 2.47214 -112.987 
0 0 -30645.1 
7.08323 4.13598 -73.1173 
0 0 -30645.6 
1.62271 -0.589509 -1.82346 
0 0 -30647.6 
0 0 -30647.1 
54.9878 -6.92424 -58.674 
0 0 -30647 
0 0 -30646.7 
-1.18844 -0.23958 -71.7409 
-7.33943 -17.8837 -26.6985 
7.21703 0.797607 -94.4832 
-9.03279 -223.399 -127.765 
-1.0915 1.12712 -0.690687 
-3.29859 3.04284 -111.477 
0 0 -30700.7 
14.835 4.26981 -62.4001 
0 0 -30701.1 
0 0 -30701.7 
0 0 -30702.2 
33.9358 -6.8668 -22.7536 
0 0 -30702.1 
0 0 -30700.6 
24.5237 21.5089 -19.6728 
1.62694 -0.203944 -58.3813 
5.13853 -18.5989 -11.2532 
1.05538 0.542642 -58.1568 
-3.20673 -0.881393 -110.979 
0 0 -30762 
15.8848 2.32267 -49.4633 
0 0 -30762.1 
0 0 -30762.1 
0 0 -30762.4 
19.5268 -2.65962 -6.98825 
0 0 -30762.4 
0 0 -30761.8 
5.32744 0.255334 -51.6812 
2.93519 0.318473 -51.3384 
147.727 12.031 -838.926 
1.35258 -78.6877 -21.0964 
-0.0609919 131.265 55.4024 
-13.5582 -90.9401 -31.3768 
0.925655 -8.03188 -105.343 
0 0 -30824.7 
-7.06291 0.54251 -37.3108 
0 0 -30824.4 
-8.22937 -1.38874 5.30011 
0 0 -30824.1 
0 0 -30824 
0 0 -30824 
0 0 -30825.1 
5.79601 -8.34129 -65.8314 
3.238 0.852344 -39.5439 
0.226165 8.2948 13.0437 
5.90905 -3.29312 -81.8656 
0 0 -30884.8 
-7.17923 -2.06003 -25.7021 
0 0 -30884.4 
0 0 -30882.8 
0 0 -30883 
0 0 -30883.2 
0 0 -30884.1 
-5.62476 6.83381 -70.1159 
1.19916 2.55864 -34.2851 
-0.157715 46.4397 75.4741 
-0.225764 2.05234 -2.73906 
7.71278 3.36537 -60.1613 
0 0 -30937 
-1.61781 -1.59109 -12.0657 
0 0 -30936.6 
0 0 -30934.2 
0 0 -30935.3 
0 0 -30935.6 
0 0 -30934.5 
-10.3815 -1.48007 -49.9923 
-1.57255 -0.287383 -28.2116 
-114.007 1.79834 -433.302 
6.72269 3.11155 -24.4528 
0 0 30997 
1.72677 -1.28275 -1.03855 
0 0 30996.4 
0 0 30997.7 
0 0 30996.6 
0 0 30997 
0 0 30997.7 
4.92532 -11.8141 -54.7044 
-1.11127 -2.17321 -31.3411 
2.71076 0.516486 -8.41311 
0 0 -30974 
0 0 -30973.5 
0 0 -30974.8 
0 0 -30974.5 
0 0 -30974.9 
0 0 -30974.3 
9.56054 6.57261 -25.0918 
5.44845 0.192703 -20.8683 
21.0141 -7.47025 2.23833 
11.8234 1.46344 8.62686 
0.0706286 -1.88054 3.82997 
-13.1965 341.014 218.559 
-0.716575 -2.72329 5.98033 
-1.15391 -15.7225 -10.9367 
0 0 30553.4 
32.8846 2.45297 198.623 
8.7995 8.95383 119.727 
-0.0362902 -0.404016 7.63881 
2.19688 0.791923 13.3288 
0.598364 -49.9404 215.875 
11.54 -6.16061 154.462 
3.685 5.10384 7.98036 
-73.197 -8.1192 280.084 
0.548707 0.311335 3.27319 
-1.26242 0.277192 28.0555 
11.7864 18.5536 32.5529 
-3.77056 0.319948 32.6817 
0 0 30554.2 
-0.0435701 0.0277735 13.7693 
-3.91344 -3.50895 23.1933 
-0.453601 1.30204 13.2854 
0 0 30554.4 
0 0 30553.8 
0 0 30553.8 
9.446 -4.11309 35.9701 
0 0 30553.4 
147.741 -37.442 526.423 
-20.5119 8.88673 25.3314 
-0.805635 3.10972 12.3034 
-0.681178 -1.70874 13.121 
-1.54854 -4.96028 9.6295 
0.919681 -2.11794 22.4273 
-0.923759 -0.47996 28.5689 
-2.25374 1.57897 12.3907 
1.0251 -2.88125 13.3146 
0 0 -30997.7 
0 0 -30997 
0 0 -30998.4 
0 0 -30997.6 
0 0 -30998.4 
0 0 -30997.1 
VECTORS moment double
0 0 0 
0 0 0 
0 0 0 
0 0 0 
0 0 0 
0 0 0 
0 0 0 
0 0 0 
0 0 0 
0 0 0 
0 0 0 
0 0 0 
0 0 0 
0 0 0 
0 0 0 
0 0 0 
0 0 0 
0 0 0 
0 0 0 
0 0 0 
0 0 0 
0 0 0 
0 0 0 
0 0 0 
0 0 0 
0 0 0 
0 0 0 
0 0 0 
0 0 0 
0 0 0 
0 0 0 
0 0 0 
0 0 0 
0 0 0 
0 0 0 
0 0 0 
0 0 0 
0 0 0 
0 0 0 
0 0 0 
0 0 0 
0 0 0 
0 0 0 
0 0 0 
0 0 0 
0 0 0 
0 0 0 
0 0 0 
0 0 0 
0 0 0 
0 0 0 
0 0 0 
0 0 0 
0 0 0 
0 0 0 
0 0 0 
0 0 0 
0 0 0 
0 0 0 
0 0 0 
0 0 0 
0 0 0 
0 0 0 
0 0 0 
0 0 0 
0 0 0 
0 0 0 
0 0 0 
0 0 0 
0 0 0 
0 0 0 
0 0 0 
0 0 0 
0 0 0 
0 0 0 
0 0 0 
0 0 0 
0 0 0 
0 0 0 
0 0 0 
0 0 0 
0 0 0 
0 0 0 
0 0 0 
0 0 0 
0 0 0 
0 0 0 
0 0 0 
0 0 0 
0 0 0 
0 0 0 
0 0 0 
0 0 0 
0 0 0 
0 0 0 
0 0 0 
0 0 0 
0 0 0 
0 0 0 
0 0 0 
0 0 0 
0 0 0 
0 0 0 
0 0 0 
0 0 0 
0 0 0 
0 0 0 
0 0 0 
0 0 0 
0 0 0 
0 0 0 
0 0 0 
0 0 0 
0 0 0 
0 0 0 
0 0 0 
0 0 0 
0 0 0 
0 0 0 
0 0 0 
0 0 0 
0 0 0 
0 0 0 
0 0 0 
0 0 0 
0 0 0 
0 0 0 
0 0 0 
0 0 0 
0 0 0 
0 0 0 
0 0 0 
0 0 0 
0 0 0 
0 0 0 
0 0 0 
0 0 0 
0 0 0 
0 0 0 
0 0 0 
0 0 0 
0 0 0 
0 0 0 
0 0 0 
0 0 0 
0 0 0 
0 0 0 
0 0 0 
0 0 0 
0 0 0 
0 0 0 
0 0 0 
0 0 0 
0 0 0 
0 0 0 
0 0 0 
0 0 0 
0 0 0 
0 0 0 
0 0 0 
0 0 0 
0 0 0 
0 0 0 
0 0 0 
0 0 0 
0 0 0 
0 0 0 
0 0 0 
0 0 0 
0 0 0 
0 0 0 
0 0 0 
0 0 0 
0 0 0 
0 0 0 
0 0 0 
0 0 0 
0 0 0 
0 0 0 
0 0 0 
0 0 0 
0 0 0 
0 0 0 
0 0 0 
0 0 0 
0 0 0 
0 0 0 
0 0 0 
0 0 0 
0 0 0 
0 0 0 
SCALARS num_collisions int 1
LOOKUP_TABLE default
1 
1 
1 
1 
1 
1 
1 
1 
1 
1 
1 
1 
1 
1 
1 
1 
1 
1 
1 
1 
1 
1 
1 
1 
1 
1 
1 
1 
1 
1 
1 
1 
1 
1 
1 
1 
1 
1 
1 
1 
1 
1 
1 
1 
1 
1 
1 
1 
1 
1 
1 
1 
1 
1 
1 
1 
1 
1 
1 
1 
1 
1 
1 
1 
1 
1 
1 
1 
1 
1 
1 
1 
1 
1 
1 
1 
1 
1 
1 
1 
1 
1 
1 
1 
1 
1 
1 
1 
1 
1 
1 
1 
1 
1 
1 
1 
1 
1 
1 
1 
1 
1 
1 
1 
1 
1 
1 
1 
1 
1 
1 
1 
1 
1 
1 
1 
1 
1 
1 
1 
1 
1 
1 
1 
1 
1 
1 
1 
1 
1 
1 
1 
1 
1 
1 
1 
1 
1 
1 
1 
1 
1 
1 
1 
1 
1 
1 
1 
1 
1 
1 
1 
1 
1 
1 
1 
1 
1 
1 
1 
1 
1 
1 
1 
1 
1 
1 
1 
1 
1 
1 
1 
1 
1 
1 
1 
1 
1 
1 
1 
1 
1 
1 
1 
1 
1 
1 
1 
1 
1 
1 
VECTORS pos double
-0.392084 -0.40124 -0.424024 
-0.403333 -0.203333 -0.422911 
-0.387198 -0.00286118 -0.424382 
-0.402763 0.397237 -0.422912 
-0.272512 -0.408469 -0.423743 
-0.203538 -0.203538 -0.422911 
-0.203218 -0.00321788 -0.422911 
-0.13066 0.195392 -0.437913 
-0.182424 0.207338 -0.423704 
-0.20259 0.401415 -0.464276 
-0.0280527 -0.401331 -0.417437 
-0.00366947 -0.203669 -0.422911 
-0.00360232 -0.00360232 -0.422911 
-0.0767077 0.413465 -0.432642 
0.197623 -0.404187 -0.425916 
0.167427 -0.180571 -0.423801 
0.209898 0.000388779 -0.425566 
0.396902 -0.42551 -0.406597 
0.419025 0.0916155 -0.413215 
-0.38851 -0.403354 -0.349271 
-0.403333 -0.203333 -0.338188 
-0.378655 0.000854401 -0.3476 
-0.402763 0.397237 -0.338189 
-0.350162 -0.41742 -0.335762 
-0.299791 -0.412583 -0.341464 
-0.203538 -0.203538 -0.338188 
-0.203218 -0.00321788 -0.338189 
-0.198691 0.436435 -0.430757 
-0.0984911 -0.420066 -0.370943 
-0.0110553 -0.414456 -0.373443 
-0.00366947 -0.203669 -0.338188 
-0.00360232 -0.00360232 -0.338188 
0.187997 -0.404967 -0.356623 
0.211891 0.00553743 -0.349377 
0.393967 -0.436891 -0.315087 
0.407723 0.357162 -0.401386 
-0.395238 -0.40502 -0.272376 
-0.403333 -0.203333 -0.253478 
-0.375543 0.00383771 -0.27377 
-0.402763 0.397237 -0.253479 
-0.203538 -0.203538 -0.253478 
-0.203218 -0.00321788 -0.253478 
-0.167837 0.177116 -0.329232 
-0.238815 0.430779 -0.368131 
0.0501388 -0.456429 -0.306022 
-0.00366947 -0.203669 -0.253478 
-0.00360232 -0.00360232 -0.253478 
0.214255 -0.397631 -0.266497 
0.13553 -0.396436 -0.322064 
0.212989 0.00546326 -0.273366 
0.39216 -0.375142 -0.255338 
-0.39961 -0.407725 -0.189843 
-0.403333 -0.203333 -0.168788 
-0.379411 -0.000774515 -0.199526 
-0.402763 0.397237 -0.168789 
-0.137906 -0.428193 -0.321827 
-0.203538 -0.203538 -0.168788 
-0.203218 -0.00321788 -0.168788 
0.068623 -0.397087 -0.276298 
-0.00366947 -0.203669 -0.168787 
-0.00360232 -0.00360232 -0.168788 
0.215683 -0.412574 -0.195482 
0.242309 -0.354265 -0.230614 
0.209959 0.00402185 -0.198567 
0.39493 -0.300734 -0.200982 
0.39639 0.425604 -0.333031 
-0.397401 -0.408808 -0.112777 
-0.403333 -0.203333 -0.0841228 
-0.396732 -0.00605859 -0.106898 
-0.402763 0.397237 -0.0841242 
-0.203538 -0.203538 -0.0841234 
-0.203218 -0.00321788 -0.0841238 
0.011281 -0.388763 -0.231414 
-0.00366947 -0.203669 -0.0841228 
-0.00360232 -0.00360232 -0.084123 
0.00529378 0.200721 -0.243884 
0.219365 -0.408892 -0.115108 
0.234837 -0.257428 -0.171509 
0.208089 0.00369054 -0.122198 
-0.395515 -0.410715 -0.0357788 
-0.403333 -0.203333 0.00051213 
-0.406279 -0.0142817 -0.0440921 
-0.402763 0.397237 0.000510715 
-0.203538 -0.203538 0.000511517 
-0.203218 -0.00321788 0.000510961 
-0.0293189 -0.384507 -0.187764 
-0.00366947 -0.203669 0.000511942 
-0.00360232 -0.00360232 0.000512099 
0.212368 -0.417261 -0.0375117 
0.214811 0.000373114 -0.046921 
0.182275 0.371334 -0.175623 
0.394568 -0.148483 -0.157815 
0.395752 -0.228367 -0.176666 
0.426281 0.109774 -0.174657 
-0.392857 -0.412173 0.0412783 
-0.403333 -0.203333 0.0851154 
-0.427028 -0.0154625 0.0392705 
-0.402763 0.397237 0.085114 
-0.073254 -0.383892 -0.180974 
-0.203538 -0.203538 0.0851148 
-0.203218 -0.00321788 0.0851142 
-0.00366947 -0.203669 0.0851152 
-0.00360232 -0.00360232 0.0851153 
0.197184 -0.405728 0.0476398 
0.214727 0.0014857 0.0294529 
0.396551 -0.292276 -0.111509 
-0.388486 -0.399429 0.12202 
-0.403333 -0.203333 0.169687 
-0.403733 -0.0129448 0.109376 
-0.402763 0.397237 0.169686 
-0.203538 -0.203538 0.169687 
-0.203218 -0.00321788 0.169686 
-0.00366947 -0.203669 0.169687 
-0.00360232 -0.00360232 0.169687 
0.19539 -0.404979 0.120362 
0.21206 -0.00214352 0.105523 
0.396522 -0.280303 -0.0242602 
0.408934 0.419193 -0.0448566 
-0.389958 -0.399154 0.201529 
-0.403333 -0.203333 0.25423 
-0.384394 -0.0181021 0.189195 
-0.402763 0.397237 0.254229 
-0.203538 -0.203538 0.25423 
-0.203218 -0.00321788 0.25423 
-0.00366947 -0.203669 0.25423 
-0.00360232 -0.00360232 0.25423 
0.215438 -0.415092 0.197174 
0.218554 -0.00213527 0.1815 
0.160679 0.369708 -0.0912881 
-0.385859 -0.394445 0.281138 
-0.403333 -0.203333 0.423252 
-0.386769 0.00552437 0.275026 
-0.402763 0.397237 0.423252 
-0.203538 -0.203538 0.423253 
-0.203218 -0.00321788 0.423252 
-0.00366947 -0.203669 0.423253 
-0.00360232 -0.00360232 0.423253 
0.213583 -0.394642 0.278147 
0.220829 -0.00121686 0.259461 
-0.407413 -0.409954 0.354276 
-0.403333 -0.203333 0.338749 
-0.402763 0.397237 0.338748 
-0.203538 -0.203538 0.33875 
-0.203218 -0.00321788 0.338749 
-0.00366947 -0.203669 0.33875 
-0.00360232 -0.00360232 0.33875 
0.213835 -0.398214 0.358452 
0.218536 0.00933502 0.335495 
-0.500003 0.0153708 0.0213502 
0.5 0.105255 -0.376418 
0.39879 -0.5 -0.0847542 
0.39676 -0.5 -0.363122 
0.419858 0.500002 -0.341233 
-0.185592 0.500004 -0.388437 
-0.00360232 -0.00360232 -0.5 
0.205665 -0.00249007 -0.500034 
-0.395049 -0.00932706 -0.500027 
0.388045 0.0779758 -0.5 
-0.191779 -0.364082 -0.500003 
0.397044 -0.400892 -0.5 
-0.395855 -0.395946 -0.500036 
-0.0295197 0.214393 -0.500002 
0.206075 -0.401169 -0.500072 
0.0503904 0.452206 -0.500003 
-0.0540609 0.404028 -0.500008 
-0.227686 0.368653 -0.500004 
-0.260742 -0.419199 -0.500008 
-0.203218 -0.00321788 -0.5 
0.347876 -0.140871 -0.5 
-0.0191356 -0.387075 -0.500006 
-0.310628 0.160213 -0.500003 
-0.402763 0.397237 -0.5 
-0.403333 -0.203333 -0.5 
-0.00366947 -0.203669 -0.5 
-0.195502 0.214351 -0.500009 
-0.203538 -0.203538 -0.5 
0.409266 0.290943 -0.50005 
-0.136538 0.406303 -0.500006 
0.0350448 0.16966 -0.500003 
0.163244 0.218353 -0.500003 
0.208868 0.144601 -0.500002 
0.407154 0.35834 -0.500005 
0.171907 -0.19443 -0.500007 
0.294981 0.0527971 -0.500003 
0.375508 0.445524 -0.500003 
-0.403333 -0.203333 0.5 
-0.402763 0.397237 0.5 
-0.00360232 -0.00360232 0.5 
-0.00366947 -0.203669 0.5 
-0.203538 -0.203538 0.5 
-0.203218 -0.00321788 0.5 
VECTORS dir_n double
-0.0517962 -0.0054817 -0.998643 
3.2731e-20 0 -1 
0.0839471 -0.0341108 -0.995886 
3.27303e-20 0 -1 
0.589602 -0.162837 -0.791109 
3.27314e-20 0 -1 
3.27305e-20 0 -1 
-0.618188 0.556681 -0.554932 
0.423666 -0.038253 -0.90501 
-0.743047 -0.596549 -0.303331 
0.0726242 -0.202526 -0.97658 
3.2731e-20 0 -1 
3.27314e-20 0 -1 
0.442037 -0.048582 -0.89568 
0.160051 -0.0435587 -0.986147 
-0.00719656 -0.0805564 -0.996724 
-0.166602 -0.040909 -0.985175 
0.00284268 0.492743 -0.870171 
0.619617 0.272801 0.735971 
0.184207 0.132622 -0.973899 
3.27121e-20 0 -1 
0.0393883 -0.107168 -0.99346 
3.27116e-20 0 -1 
0.813787 -0.442156 -0.377159 
-0.688808 0.0179868 -0.72472 
3.2713e-20 0 -1 
3.27121e-20 0 -1 
0.565803 -0.606248 -0.558865 
0.951705 0.268937 -0.148092 
-0.808554 0.364413 -0.462 
3.27125e-20 0 -1 
3.27127e-20 0 -1 
0.370404 0.154759 -0.915888 
-0.0991771 -0.0833001 -0.991577 
0.0559787 -0.265244 -0.962555 
-0.140795 -0.224017 -0.964362 
0.39385 0.169896 -0.903337 
3.26785e-20 0 -1 
0.281726 -0.0636635 -0.957381 
3.26783e-20 0 -1 
3.2677e-20 0 -1 
3.26786e-20 0 -1 
0.0578004 0.262063 -0.963318 
0.84282 0.137388 -0.520364 
-0.460558 -0.184332 -0.868279 
3.26789e-20 0 -1 
3.26771e-20 0 -1 
-0.183465 0.14361 -0.97248 
0.842363 0.386426 -0.375631 
0.00684388 -0.0315672 -0.999478 
-0.0197784 -0.971879 -0.234647 
0.113686 0.0916251 -0.989283 
3.26317e-20 0 -1 
0.527593 0.037349 -0.848676 
3.26311e-20 0 -1 
-0.0012147 0.086794 -0.996226 
3.2629e-20 0 -1 
3.26295e-20 0 -1 
0.651302 -0.574815 -0.495373 
3.26297e-20 0 -1 
3.26299e-20 0 -1 
0.0866719 0.207773 -0.97433 
-0.0685292 -0.993759 0.0880123 
0.100071 0.0739827 -0.992226 
-0.0357034 -0.518703 -0.854209 
0.124871 0.981295 0.14652 
0.0670067 0.0425077 -0.996847 
3.25725e-20 0 -1 
0.767667 0.158035 -0.621057 
3.25721e-20 0 -1 
3.25715e-20 0 -1 
3.2571e-20 0 -1 
0.843753 -0.214153 -0.492159 
3.25711e-20 0 -1 
3.25727e-20 0 -1 
-0.301853 -0.104689 -0.947589 
0.298438 0.215375 -0.929811 
0.104183 -0.641779 -0.75978 
0.047687 0.0629552 -0.996876 
0.0796163 0.096386 -0.992155 
3.25076e-20 0 -1 
-0.237907 0.0487148 -0.970066 
3.25076e-20 0 -1 
3.25076e-20 0 -1 
3.25073e-20 0 -1 
0.0437635 0.403363 -0.913993 
3.25073e-20 0 -1 
3.25079e-20 0 -1 
0.523221 0.257036 -0.81251 
-0.0802619 0.0307536 -0.996299 
-0.251767 -0.0450342 -0.96674 
0.00446492 -0.66839 -0.743797 
-0.0192245 0.930091 -0.366826 
0.474034 -0.506683 -0.720114 
0.0747344 0.153856 -0.985263 
3.24415e-20 0 -1 
-0.153447 0.0275403 -0.987773 
3.24418e-20 0 -1 
-0.998769 -0.0290538 0.0402136 
3.24421e-20 0 -1 
3.24423e-20 0 -1 
3.24422e-20 0 -1 
3.24411e-20 0 -1 
-0.28331 -0.0260023 -0.958676 
-0.113091 0.0271426 -0.993214 
-0.00323173 -0.348945 0.937138 
0.0853627 0.207253 -0.974556 
3.23784e-20 0 -1 
0.122952 0.104879 -0.986855 
3.23789e-20 0 -1 
3.23805e-20 0 -1 
3.23802e-20 0 -1 
3.238e-20 0 -1 
3.23791e-20 0 -1 
0.00262143 -0.0222288 -0.999749 
-0.0415066 0.0593137 -0.997376 
0.00266064 0.588348 0.808604 
-0.192519 0.625198 -0.756349 
0.143767 0.221165 -0.964581 
3.23237e-20 0 -1 
0.357799 0.170249 -0.918148 
3.23242e-20 0 -1 
3.23267e-20 0 -1 