# vtk DataFile Version 2.0
Generated by NetDEM
ASCII 
DATASET POLYDATA
POINTS 404 double
-0.416918 -0.405395 -0.462905 
-0.403278 -0.399523 -0.388463 
-0.403333 -0.203333 -0.45827 
-0.403333 -0.203333 -0.366547 
-0.410737 -0.00743017 -0.463851 
-0.410218 -0.00918313 -0.390105 
-0.402763 0.397237 -0.458269 
-0.402763 0.397237 -0.366545 
-0.265595 -0.43257 -0.45955 
-0.30375 -0.406947 -0.385589 
-0.203538 -0.203538 -0.458268 
-0.203538 -0.203538 -0.366544 
-0.203218 -0.00321788 -0.458271 
-0.203218 -0.00321788 -0.366549 
-0.175752 0.208518 -0.457508 
-0.188308 0.203261 -0.377338 
-0.246808 0.369066 -0.465052 
-0.156467 0.414178 -0.444871 
-0.0372661 -0.396503 -0.45458 
-0.0487107 -0.387119 -0.380255 
-0.00366947 -0.203669 -0.45827 
-0.00366947 -0.203669 -0.366548 
-0.00360232 -0.00360232 -0.458269 
-0.00360232 -0.00360232 -0.366545 
0.0321218 0.187507 -0.453012 
-0.0350589 0.245981 -0.351008 
0.0321218 0.187507 -0.453012 
-0.0107333 0.160223 -0.339225 
-0.0400662 0.395415 -0.464468 
-0.0561301 0.442602 -0.359841 
0.188862 -0.398439 -0.464509 
0.187157 -0.397286 -0.392089 
0.174238 -0.211849 -0.464633 
0.184827 -0.196972 -0.38689 
0.173481 -0.00933548 -0.462056 
0.186962 -0.0121419 -0.383734 
0.173481 -0.00933548 -0.462056 
0.199066 0.112223 -0.455369 
0.396713 -0.403287 -0.45827 
0.396713 -0.403287 -0.366548 
0.396675 -0.208275 -0.458308 
0.396669 -0.210649 -0.366613 
-0.403278 -0.399523 -0.388463 
-0.402679 -0.403391 -0.316251 
-0.403333 -0.203333 -0.366547 
-0.403333 -0.203333 -0.274831 
-0.410218 -0.00918313 -0.390105 
-0.389592 -0.00233926 -0.311283 
-0.402763 0.397237 -0.366545 
-0.402763 0.397237 -0.274828 
-0.30375 -0.406947 -0.385589 
-0.402679 -0.403391 -0.316251 
-0.30375 -0.406947 -0.385589 
-0.239393 -0.396906 -0.321084 
-0.203538 -0.203538 -0.366544 
-0.203538 -0.203538 -0.274827 
-0.203218 -0.00321788 -0.366549 
-0.203218 -0.00321788 -0.274833 
-0.156467 0.414178 -0.444871 
-0.20521 0.44995 -0.382586 
-0.0487107 -0.387119 -0.380255 
0.0218589 -0.42692 -0.329417 
-0.0487107 -0.387119 -0.380255 
-0.144743 -0.40996 -0.367879 
-0.00366947 -0.203669 -0.366548 
-0.00366947 -0.203669 -0.274832 
-0.00360232 -0.00360232 -0.366545 
-0.00360232 -0.00360232 -0.274827 
0.187157 -0.397286 -0.392089 
0.176345 -0.3957 -0.317254 
0.184827 -0.196972 -0.38689 
0.157606 -0.168427 -0.30889 
0.186962 -0.0121419 -0.383734 
0.188999 0.00445274 -0.309366 
0.396713 -0.403287 -0.366548 
0.396713 -0.403287 -0.274832 
0.396669 -0.210649 -0.366613 
0.396583 -0.204052 -0.275119 
-0.402679 -0.403391 -0.316251 
-0.413902 -0.406925 -0.242088 
-0.403333 -0.203333 -0.274831 
-0.403333 -0.203333 -0.183125 
-0.389592 -0.00233926 -0.311283 
-0.386967 0.00163616 -0.234725 
-0.402763 0.397237 -0.274828 
-0.402763 0.397237 -0.183122 
-0.203538 -0.203538 -0.274827 
-0.203538 -0.203538 -0.18312 
-0.203218 -0.00321788 -0.274833 
-0.203218 -0.00321788 -0.183128 
-0.188308 0.203261 -0.377338 
-0.188059 0.171066 -0.27811 
-0.20521 0.44995 -0.382586 
-0.232504 0.435672 -0.300379 
0.0218589 -0.42692 -0.329417 
0.0869871 -0.433566 -0.274087 
-0.00366947 -0.203669 -0.274832 
-0.00366947 -0.203669 -0.183127 
-0.00360232 -0.00360232 -0.274827 
-0.00360232 -0.00360232 -0.183121 
-0.0350589 0.245981 -0.351008 
-0.0221569 0.216765 -0.263021 
0.176345 -0.3957 -0.317254 
0.20345 -0.396979 -0.229803 
0.157606 -0.168427 -0.30889 
0.185558 -0.210725 -0.231685 
0.188999 0.00445274 -0.309366 
0.192699 0.00469206 -0.236062 
0.396713 -0.403287 -0.274832 
0.396713 -0.403287 -0.183126 
0.396583 -0.204052 -0.275119 
0.396609 -0.202519 -0.183422 
-0.413902 -0.406925 -0.242088 
-0.412183 -0.409193 -0.155165 
-0.403333 -0.203333 -0.183125 
-0.403333 -0.203333 -0.0914341 
-0.386967 0.00163616 -0.234725 
-0.390189 -0.00494135 -0.153233 
-0.367455 0.208954 -0.164403 
-0.307607 0.197791 -0.0851469 
-0.402763 0.397237 -0.183122 
-0.402763 0.397237 -0.0914301 
-0.203538 -0.203538 -0.18312 
-0.203538 -0.203538 -0.0914277 
-0.203218 -0.00321788 -0.183128 
-0.203218 -0.00321788 -0.091437 
-0.00366947 -0.203669 -0.183127 
-0.00366947 -0.203669 -0.091436 
-0.00360232 -0.00360232 -0.183121 
-0.00360232 -0.00360232 -0.0914291 
-0.0107333 0.160223 -0.339225 
-0.0221569 0.216765 -0.263021 
0.20345 -0.396979 -0.229803 
0.200193 -0.401321 -0.158353 
0.185558 -0.210725 -0.231685 
0.209396 -0.269885 -0.160955 
0.192699 0.00469206 -0.236062 
0.186755 0.00178069 -0.163241 
0.396713 -0.403287 -0.183126 
0.396713 -0.403287 -0.0914351 
0.396609 -0.202519 -0.183422 
0.396612 -0.203495 -0.0917067 
-0.412183 -0.409193 -0.155165 
-0.412023 -0.404575 -0.0791129 
-0.403333 -0.203333 -0.0914341 
-0.403333 -0.203333 0.000240784 
-0.390189 -0.00494135 -0.153233 
-0.422086 -0.00487956 -0.0861066 
-0.402763 0.397237 -0.0914301 
-0.402763 0.397237 0.000245021 
-0.239393 -0.396906 -0.321084 
-0.190769 -0.403229 -0.23501 
-0.203538 -0.203538 -0.0914277 
-0.203538 -0.203538 0.00024756 
-0.203218 -0.00321788 -0.091437 
-0.203218 -0.00321788 0.000237666 
-0.188059 0.171066 -0.27811 
-0.204048 0.199692 -0.192735 
-0.00366947 -0.203669 -0.091436 
-0.00366947 -0.203669 0.000238772 
-0.00360232 -0.00360232 -0.0914291 
-0.00360232 -0.00360232 0.000246058 
-0.0221569 0.216765 -0.263021 
0.00153404 0.206485 -0.187434 
-0.0561301 0.442602 -0.359841 
-0.0302953 0.382648 -0.292448 
0.200193 -0.401321 -0.158353 
0.209067 -0.399311 -0.0792093 
0.209396 -0.269885 -0.160955 
0.197025 -0.231388 -0.0719554 
0.186755 0.00178069 -0.163241 
0.183523 -0.00157696 -0.0864405 
0.396713 -0.403287 -0.0914351 
0.396713 -0.403287 0.000239736 
0.396612 -0.203495 -0.0917067 
0.396609 -0.203396 2.63653e-05 
-0.412023 -0.404575 -0.0791129 
-0.41011 -0.401228 -0.000967288 
-0.403333 -0.203333 0.000240784 
-0.403333 -0.203333 0.0918985 
-0.422086 -0.00487956 -0.0861066 
-0.419562 -0.00297643 0.0105513 
-0.307607 0.197791 -0.0851469 
-0.306225 0.218107 0.0125775 
-0.402763 0.397237 0.000245021 
-0.402763 0.397237 0.0919027 
-0.190769 -0.403229 -0.23501 
-0.15603 -0.403337 -0.150933 
-0.203538 -0.203538 0.00024756 
-0.203538 -0.203538 0.0919051 
-0.203218 -0.00321788 0.000237666 
-0.203218 -0.00321788 0.0918956 
-0.204048 0.199692 -0.192735 
-0.205429 0.216929 -0.102813 
-0.00366947 -0.203669 0.000238772 
-0.00366947 -0.203669 0.0918966 
-0.00360232 -0.00360232 0.000246058 
-0.00360232 -0.00360232 0.0919036 
0.00153404 0.206485 -0.187434 
0.0140819 0.185582 -0.116783 
0.209067 -0.399311 -0.0792093 
0.188167 -0.410048 -0.00950442 
0.197025 -0.231388 -0.0719554 
0.196964 -0.197556 0.00505432 
0.183523 -0.00157696 -0.0864405 
0.186988 -0.00340083 -0.00759533 
0.175878 0.365181 -0.140082 
0.133263 0.386512 -0.0524404 
0.396713 -0.403287 0.000239736 
0.396713 -0.403287 0.0918975 
0.396609 -0.203396 2.63653e-05 
0.39661 -0.203387 0.0917595 
-0.41011 -0.401228 -0.000967288 
-0.410662 -0.40312 0.0774702 
-0.403333 -0.203333 0.0918985 
-0.403333 -0.203333 0.18354 
-0.419562 -0.00297643 0.0105513 
-0.414206 0.000201154 0.0824454 
-0.402763 0.397237 0.0919027 
-0.402763 0.397237 0.183544 
-0.15603 -0.403337 -0.150933 
-0.218933 -0.399875 -0.0760425 
-0.203538 -0.203538 0.0919051 
-0.203538 -0.203538 0.183546 
-0.203218 -0.00321788 0.0918956 
-0.203218 -0.00321788 0.183538 
-0.00366947 -0.203669 0.0918966 
-0.00366947 -0.203669 0.183538 
-0.00360232 -0.00360232 0.0919036 
-0.00360232 -0.00360232 0.183545 
0.0140819 0.185582 -0.116783 
-0.0150317 0.204227 -0.03279 
0.188167 -0.410048 -0.00950442 
0.199972 -0.404238 0.0843823 
0.196964 -0.197556 0.00505432 
0.19178 -0.197395 0.0940836 
0.186988 -0.00340083 -0.00759533 
0.190646 -0.00755284 0.0684246 
0.20206 0.19418 -0.168023 
0.198135 0.186106 -0.068808 
0.396713 -0.403287 0.0918975 
0.396713 -0.403287 0.183539 
0.39661 -0.203387 0.0917595 
0.39661 -0.203391 0.183467 
-0.410662 -0.40312 0.0774702 
-0.410738 -0.404737 0.157739 
-0.403333 -0.203333 0.18354 
-0.403333 -0.203333 0.275168 
-0.414206 0.000201154 0.0824454 
-0.401661 -0.00226851 0.157599 
-0.402763 0.397237 0.183544 
-0.402763 0.397237 0.275171 
-0.203538 -0.203538 0.183546 
-0.203538 -0.203538 0.275173 
-0.203218 -0.00321788 0.183538 
-0.203218 -0.00321788 0.275166 
-0.00366947 -0.203669 0.183538 
-0.00366947 -0.203669 0.275166 
-0.00360232 -0.00360232 0.183545 
-0.00360232 -0.00360232 0.275172 
-0.0150317 0.204227 -0.03279 
-0.00532538 0.202886 0.0635164 
0.199972 -0.404238 0.0843823 
0.194165 -0.404097 0.155222 
0.19178 -0.197395 0.0940836 
0.195773 -0.199736 0.185355 
0.190646 -0.00755284 0.0684246 
0.194853 -0.00649937 0.147545 
0.198135 0.186106 -0.068808 
0.190207 0.200557 0.018754 
0.396713 -0.403287 0.183539 
0.396713 -0.403287 0.275167 
0.39661 -0.203391 0.183467 
0.39661 -0.20339 0.275135 
-0.410738 -0.404737 0.157739 
-0.407165 -0.40595 0.234285 
-0.403333 -0.203333 0.275168 
-0.403333 -0.203333 0.366785 
-0.401661 -0.00226851 0.157599 
-0.406981 -0.00373659 0.233209 
-0.402763 0.397237 0.275171 
-0.402763 0.397237 0.366787 
-0.203538 -0.203538 0.275173 
-0.203538 -0.203538 0.366789 
-0.203218 -0.00321788 0.275166 
-0.203218 -0.00321788 0.366784 
-0.00366947 -0.203669 0.275166 
-0.00366947 -0.203669 0.366784 
-0.00360232 -0.00360232 0.275172 
-0.00360232 -0.00360232 0.366788 
0.194165 -0.404097 0.155222 
0.197049 -0.400231 0.231593 
0.195773 -0.199736 0.185355 
0.196718 -0.206601 0.264537 
0.194853 -0.00649937 0.147545 
0.191179 -0.00445857 0.219913 
0.190207 0.200557 0.018754 
0.196496 0.196075 0.109027 
0.396713 -0.403287 0.275167 
0.396713 -0.403287 0.366785 
0.39661 -0.20339 0.275135 
0.39661 -0.20339 0.366772 
-0.403333 -0.203333 0.458397 
-0.403333 -0.203333 0.366785 
-0.406981 -0.00373659 0.233209 
-0.403736 -0.00409204 0.320715 
-0.402763 0.397237 0.458398 
-0.402763 0.397237 0.366787 
-0.203538 -0.203538 0.458398 
-0.203538 -0.203538 0.366789 
-0.203218 -0.00321788 0.458396 
-0.203218 -0.00321788 0.366784 
-0.00366947 -0.203669 0.458396 
-0.00366947 -0.203669 0.366784 
-0.00360232 -0.00360232 0.458398 
-0.00360232 -0.00360232 0.366788 
0.197049 -0.400231 0.231593 
0.197537 -0.401848 0.316454 
0.196718 -0.206601 0.264537 
0.195942 -0.203881 0.349384 
0.396713 -0.403287 0.458396 
0.396713 -0.403287 0.366785 
0.39661 -0.20339 0.458393 
0.39661 -0.20339 0.366772 
-0.20521 0.44995 -0.382586 
-0.185553 0.500003 -0.38848 
-0.0561301 0.442602 -0.359841 
-0.0559092 0.500002 -0.356309 
0.33021 0.450127 -0.155366 
0.330146 0.5 -0.155303 
-0.203538 -0.203538 -0.458268 
-0.203538 -0.203538 -0.5 
0.173481 -0.00933548 -0.462056 
0.205673 -0.00248375 -0.500032 
-0.410737 -0.00743017 -0.463851 
-0.395042 -0.00931959 -0.500025 
0.398164 0.357462 -0.449059 
0.359584 0.333018 -0.500002 
-0.183002 -0.365651 -0.453687 
-0.191537 -0.364166 -0.500003 
0.396675 -0.208275 -0.458308 
0.396673 -0.208154 -0.5 
-0.416918 -0.405395 -0.462905 
-0.390505 -0.400343 -0.500062 
0.00276063 0.254089 -0.441687 
-0.0283852 0.214753 -0.500002 
0.188862 -0.398439 -0.464509 
0.194263 -0.395587 -0.500043 
0.174238 -0.211849 -0.464633 
0.199685 -0.186213 -0.500012 
-0.246808 0.369066 -0.465052 
-0.237017 0.368465 -0.500004 
-0.265595 -0.43257 -0.45955 
-0.260743 -0.419198 -0.500009 
-0.00360232 -0.00360232 -0.458269 
-0.00360232 -0.00360232 -0.5 
0.286324 0.0690617 -0.441518 
0.296004 0.0527154 -0.500003 
-0.403333 -0.203333 -0.45827 
-0.403333 -0.203333 -0.5 
-0.301642 0.16081 -0.465033 
-0.285088 0.199768 -0.500004 
-0.00366947 -0.203669 -0.45827 
-0.00366947 -0.203669 -0.5 
0.050993 0.344829 -0.441227 
0.0554396 0.347474 -0.500003 
-0.203218 -0.00321788 -0.458271 
-0.203218 -0.00321788 -0.5 
0.396713 -0.403287 -0.45827 
0.396713 -0.403287 -0.5 
-0.175752 0.208518 -0.457508 
-0.181387 0.225817 -0.500025 
-0.0372661 -0.396503 -0.45458 
-0.00481989 -0.387911 -0.50001 
0.371276 0.4399 -0.464318 
0.388096 0.441836 -0.500003 
-0.156467 0.414178 -0.444871 
-0.136913 0.406498 -0.500006 
0.0321218 0.187507 -0.453012 
0.0261143 0.186978 -0.500008 
0.159153 0.21051 -0.465031 
0.148363 0.194733 -0.500002 
0.199066 0.112223 -0.455369 
0.220047 0.135425 -0.500003 
-0.402763 0.397237 -0.458269 
-0.402763 0.397237 -0.5 
-0.0400662 0.395415 -0.464468 
-0.0405787 0.40163 -0.500012 
-0.00366947 -0.203669 0.458396 
-0.00366947 -0.203669 0.5 
-0.203538 -0.203538 0.458398 
-0.203538 -0.203538 0.5 
0.39661 -0.20339 0.458393 
0.39661 -0.20339 0.5 
-0.403333 -0.203333 0.458397 
-0.403333 -0.203333 0.5 
-0.00360232 -0.00360232 0.458398 
-0.00360232 -0.00360232 0.5 
-0.402763 0.397237 0.458398 
-0.402763 0.397237 0.5 
0.396713 -0.403287 0.458396 
0.396713 -0.403287 0.5 
-0.203218 -0.00321788 0.458396 
-0.203218 -0.00321788 0.5 
LINES 202 606
2 0 1
2 2 3
2 4 5
2 6 7
2 8 9
2 10 11
2 12 13
2 14 15
2 16 17
2 18 19
2 20 21
2 22 23
2 24 25
2 26 27
2 28 29
2 30 31
2 32 33
2 34 35
2 36 37
2 38 39
2 40 41
2 42 43
2 44 45
2 46 47
2 48 49
2 50 51
2 52 53
2 54 55
2 56 57
2 58 59
2 60 61
2 62 63
2 64 65
2 66 67
2 68 69
2 70 71
2 72 73
2 74 75
2 76 77
2 78 79
2 80 81
2 82 83
2 84 85
2 86 87
2 88 89
2 90 91
2 92 93
2 94 95
2 96 97
2 98 99
2 100 101
2 102 103
2 104 105
2 106 107
2 108 109
2 110 111
2 112 113
2 114 115
2 116 117
2 118 119
2 120 121
2 122 123
2 124 125
2 126 127
2 128 129
2 130 131
2 132 133
2 134 135
2 136 137
2 138 139
2 140 141
2 142 143
2 144 145
2 146 147
2 148 149
2 150 151
2 152 153
2 154 155
2 156 157
2 158 159
2 160 161
2 162 163
2 164 165
2 166 167
2 168 169
2 170 171
2 172 173
2 174 175
2 176 177
2 178 179
2 180 181
2 182 183
2 184 185
2 186 187
2 188 189
2 190 191
2 192 193
2 194 195
2 196 197
2 198 199
2 200 201
2 202 203
2 204 205
2 206 207
2 208 209
2 210 211
2 212 213
2 214 215
2 216 217
2 218 219
2 220 221
2 222 223
2 224 225
2 226 227
2 228 229
2 230 231
2 232 233
2 234 235
2 236 237
2 238 239
2 240 241
2 242 243
2 244 245
2 246 247
2 248 249
2 250 251
2 252 253
2 254 255
2 256 257
2 258 259
2 260 261
2 262 263
2 264 265
2 266 267
2 268 269
2 270 271
2 272 273
2 274 275
2 276 277
2 278 279
2 280 281
2 282 283
2 284 285
2 286 287
2 288 289
2 290 291
2 292 293
2 294 295
2 296 297
2 298 299
2 300 301
2 302 303
2 304 305
2 306 307
2 308 309
2 310 311
2 312 313
2 314 315
2 316 317
2 318 319
2 320 321
2 322 323
2 324 325
2 326 327
2 328 329
2 330 331
2 332 333
2 334 335
2 336 337
2 338 339
2 340 341
2 342 343
2 344 345
2 346 347
2 348 349
2 350 351
2 352 353
2 354 355
2 356 357
2 358 359
2 360 361
2 362 363
2 364 365
2 366 367
2 368 369
2 370 371
2 372 373
2 374 375
2 376 377
2 378 379
2 380 381
2 382 383
2 384 385
2 386 387
2 388 389
2 390 391
2 392 393
2 394 395
2 396 397
2 398 399
2 400 401
2 402 403
POINT_DATA 404
SCALARS id int 1
LOOKUP_TABLE default
0
25
1
26
2
27
4
29
5
30
6
31
7
32
8
58
9
34
10
35
11
36
12
37
13
63
13
88
14
114
15
40
16
41
17
42
17
43
20
45
21
46
25
50
26
51
27
52
29
54
30
50
30
105
31
56
32
57
34
59
35
60
35
80
36
61
37
62
40
65
41
66
42
67
45
70
46
71
50
75
51
76
52
77
54
79
56
81
57
82
58
108
59
84
60
85
61
86
62
87
63
113
65
90
66
91
67
92
70
95
71
96
75
100
76
101
77
102
78
128
79
104
81
106
82
107
86
111
87
112
88
113
90
115
91
116
92
117
95
120
96
121
100
125
101
126
102
127
104
129
105
130
106
131
107
132
108
133
111
136
112
137
113
138
114
139
115
140
116
141
117
142
120
145
121
146
125
150
126
151
127
152
128
153
129
154
130
155
131
156
132
157
133
158
136
161
137
162
138
163
140
165
141
166
142
167
144
169
145
170
146
171
150
175
151
176
152
177
154
179
155
180
156
181
157
182
161
186
162
187
163
188
165
190
166
191
167
192
168
193
170
195
171
196
175
200
176
201
177
202
179
204
181
206
182
207
186
211
187
212
188
213
190
215
191
216
192
217
193
218
195
220
196
221
200
225
201
251
202
227
204
254
206
256
207
257
211
261
212
262
215
240
216
241
217
242
218
243
220
270
221
271
226
251
227
252
229
254
231
256
232
257
236
261
237
262
240
265
241
266
245
270
246
271
59
3
114
3
119
3
6
4
17
4
2
4
49
4
55
4
21
4
0
4
38
4
15
4
16
4
9
4
5
4
12
4
68
4
1
4
33
4
11
4
39
4
7
4
20
4
8
4
10
4
24
4
34
4
13
4
18
4
43
4
4
4
14
4
236
5
231
5
246
5
226
5
237
5
229
5
245
5
232
5
CELL_DATA 202
VECTORS force double
-19.0054 6.42297 -247.254 
0 0 -16591.5 
-2.81026 1.0021 -98.6006 
0 0 -16589.3 
1.30149 0.28885 -20.2543 
0 0 -16588.1 
0 0 -16593 
-5.16056 20.2929 -79.5621 
-10.9185 -13.13 -16.698 
9.09321 2.0718 -22.0481 
0 0 -16592.6 
0 0 -16588.9 
10.7147 -3.07106 -17.5729 
4.82079 -0.00657332 -35.3851 
44.0229 -40.4502 -22.0281 
-5.73431 0.322814 -169.249 
9.25879 0.38365 -40.5348 
1.95495 -2.19708 -110.597 
-1.50937 -3.21832 -0.713643 
0 0 -16591.9 
3.33281 3.99282 -16498.6 
-2.65298 7.52919 -234.784 
0 0 -16599.5 
-2.83356 -1.53861 -86.9612 
0 0 -16597.5 
4.66314 -1.02624 14.0103 
-12.9616 -0.651391 -25.6133 
0 0 -16596.5 
0 0 -16600.6 
11.4784 -7.61225 -25.7148 
-7.2063 2.29425 -7.63201 
4.21064 -1.12422 -4.40642 
0 0 -16600.5 
0 0 -16597.2 
-12.5765 -0.319647 -169.288 
2.46856 8.10159 -31.2087 
3.20229 -2.42628 -97.063 
0 0 -16599.8 
9.39072 -671.808 -16505.2 
7.13126 6.60064 -190.627 
0 0 -16614.4 
-0.27481 -4.96183 -70.8109 
0 0 -16612.8 
0 0 -16612.1 
0 0 -16615.5 
5.38777 5.51507 -56.9581 
0.195439 -2.05571 -7.50843 
-3.31352 6.99435 -17.9696 
0 0 -16615.2 
0 0 -16612.6 
0.0340136 -13.4257 -21.6748 
-10.9621 3.24037 -157.56 
-7.15544 24.5903 -46.1341 
3.4349 -1.01671 -85.0065 
0 0 -16614.9 
0.629697 -410.756 -16618.1 
10.0572 1.65826 -163 
0 0 -16634.1 
10.1853 -1.09878 -66.7629 
38.5734 -72.6852 -77.2927 
0 0 -16633 
0 0 -16632.6 
0 0 -16635.2 
0 0 -16634.6 
0 0 -16632.9 
-12.4841 -3.25392 -64.0117 
-2.34701 0.381562 -156.286 
-25.886 17.1898 -64.2938 
4.08026 0.636024 -71.3876 
0 0 -16634.8 
-1.66113 90.3765 -16620.8 
10.3542 -7.86067 -133.175 
0 0 -16656.8 
10.4626 5.74951 -65.5004 
0 0 -16656.2 
-32.884 1.57119 -31.9633 
0 0 -16656.1 
0 0 -16657.2 
7.98343 3.09143 -31.8946 
0 0 -16657 
0 0 -16656.3 
-24.9801 -0.4473 -75.0292 
-57.2411 31.9148 -4.85373 
2.38428 -0.204785 -138.064 
-11.9442 9.81448 -46.3584 
5.03371 1.01374 -66.5032 
0 0 -16657.1 
0.360036 30.2437 -16591.9 
5.25962 -6.72982 -105.859 
0 0 -16680.1 
-7.73506 -0.20295 -87.7822 
-124.378 6.40762 -972.231 
0 0 -16680.2 
4.5053 2.52737 -23.58 
0 0 -16680.4 
0 0 -16679.6 
0.507563 -3.12972 -13.9619 
0 0 -16679.9 
0 0 -16680.4 
1.54653 -0.339284 -46.3827 
4.26266 3.36253 -111.824 
18.0093 -2.19551 -53.0134 
-1.90883 -0.591836 -60.8434 
65.473 -24.322 -80.971 
0 0 -16679.7 
0.0355086 -11.9368 -16555 
6.64985 2.39809 -71.1652 
0 0 -16701.7 
-6.63931 3.12984 -89.5162 
0 0 -16702.5 
11.7516 -0.154517 -37.2111 
0 0 -16702.9 
0 0 -16700.5 
0 0 -16701.2 
0 0 -16702.7 
0.998534 2.43207 -14.4724 
2.2514 8.2742 -83.1388 
4.78297 -18.7589 -75.4725 
-10.2627 -0.0175921 -69.3498 
-20.6684 13.8423 -111.268 
0 0 -16700.9 
-0.0265844 1.77083 -16549.1 
11.5567 7.4958 -31.54 
0 0 -16719.6 
-1.66793 0.921571 -70.5655 
0 0 -16721 
0 0 -16721.8 
0 0 -16718.4 
0 0 -16718.9 
0 0 -16721.3 
1.35278 0.00170493 7.94503 
1.92922 -1.47113 -52.5986 
-9.40953 -9.42328 -60.6398 
8.0402 4.15039 -60.0429 
30.3844 -16.8457 -215.056 
0 0 -16719 
0.00534048 -0.0492513 -16606.6 
3.49148 1.81215 -9.12593 
0 0 -16732.5 
-3.39175 -8.72866 -65.8516 
0 0 -16734.6 
0 0 -16735.6 
0 0 -16731.4 
0 0 -16731.6 
0 0 -16734.9 
5.32496 -6.2985 -10.6212 
-0.171642 2.43606 -44.8786 
10.2222 5.50695 -28.62 
13.7794 -20.3398 -148.916 
0 0 -16732.2 
-0.000622634 -0.0187709 -16669.4 
0 0 16738.9 
9.988 1.66914 -63.0436 
0 0 16741.5 
0 0 16742.7 
0 0 16737.6 
0 0 16737.8 
0 0 16741.8 
-0.0200482 0.80694 5.72119 
2.7539 8.89076 -23.6456 
0 0 16738.7 
-2.64545e-05 -0.00370076 16708.4 
0.645569 -13.4765 -4.78033 
196.497 -54.8322 -31.4094 
15.3266 98.1348 -6.7903 
0 0 16589.4 
1.32007 3.97628 125.403 
4.57906 -1.86267 112.49 
2.97357 2.13611 6.43101 
0.468546 -0.111462 9.07233 
-0.463105 -228.011 16494.4 
23.465 -9.47091 288.297 
3.3723 4.357 8.90282 
2.72539 -3.57492 176.566 
-9.36915 -0.149687 49.1289 
9.48556 11.9079 27.8767 
-3.69359 -0.816391 35.0057 
0 0 16590.2 
-1.5363 2.5045 12.6683 
0 0 16593 
-7.59783 -13.4843 14.8871 
0 0 16594.2 
-0.763935 -0.472002 13.5149 
0 0 16594.9 
0 0 16593.7 
-4.34626 -22.2424 103.732 
-13.8425 -3.93913 35.1849 
-3.65758 -0.530634 12.4121 
-13.4745 1.68972 23.4303 
-16.9012 -3.46294 55.3931 
1.97498 3.27916 14.0586 
-3.67739 -4.33539 11.8378 
0 0 16590.7 
-9.88828 0.192446 33.9779 
0 0 -16735.5 
0 0 -16740.8 
2.4935e-05 -0.000806754 -16719.4 
0 0 -16736.8 
0 0 -16739.8 
0 0 -16739.6 
0 0 -16736.3 
0 0 -16735 
VECTORS moment double
0 0 0 
0 0 0 
0 0 0 
0 0 0 
0 0 0 
0 0 0 
0 0 0 
0 0 0 
0 0 0 
0 0 0 
0 0 0 
0 0 0 
0 0 0 
0 0 0 
0 0 0 
0 0 0 
0 0 0 
0 0 0 
0 0 0 
0 0 0 
0 0 0 
0 0 0 
0 0 0 
0 0 0 
0 0 0 
0 0 0 
0 0 0 
0 0 0 
0 0 0 
0 0 0 
0 0 0 
0 0 0 
0 0 0 
0 0 0 
0 0 0 
0 0 0 
0 0 0 
0 0 0 
0 0 0 
0 0 0 
0 0 0 
0 0 0 
0 0 0 
0 0 0 
0 0 0 
0 0 0 
0 0 0 
0 0 0 
0 0 0 
0 0 0 
0 0 0 
0 0 0 
0 0 0 
0 0 0 
0 0 0 
0 0 0 
0 0 0 
0 0 0 
0 0 0 
0 0 0 
0 0 0 
0 0 0 
0 0 0 
0 0 0 
0 0 0 
0 0 0 
0 0 0 
0 0 0 
0 0 0 
0 0 0 
0 0 0 
0 0 0 
0 0 0 
0 0 0 
0 0 0 
0 0 0 
0 0 0 
0 0 0 
0 0 0 
0 0 0 
0 0 0 
0 0 0 
0 0 0 
0 0 0 
0 0 0 
0 0 0 
0 0 0 
0 0 0 
0 0 0 
0 0 0 
0 0 0 
0 0 0 
0 0 0 
0 0 0 
0 0 0 
0 0 0 
0 0 0 
0 0 0 
0 0 0 
0 0 0 
0 0 0 
0 0 0 
0 0 0 
0 0 0 
0 0 0 
0 0 0 
0 0 0 
0 0 0 
0 0 0 
0 0 0 
0 0 0 
0 0 0 
0 0 0 
0 0 0 
0 0 0 
0 0 0 
0 0 0 
0 0 0 
0 0 0 
0 0 0 
0 0 0 
0 0 0 
0 0 0 
0 0 0 
0 0 0 
0 0 0 
0 0 0 
0 0 0 
0 0 0 
0 0 0 
0 0 0 
0 0 0 
0 0 0 
0 0 0 
0 0 0 
0 0 0 
0 0 0 
0 0 0 
0 0 0 
0 0 0 
0 0 0 
0 0 0 
0 0 0 
0 0 0 
0 0 0 
0 0 0 
0 0 0 
0 0 0 
0 0 0 
0 0 0 
0 0 0 
0 0 0 
0 0 0 
0 0 0 
0 0 0 
0 0 0 
0 0 0 
0 0 0 
0 0 0 
0 0 0 
0 0 0 
0 0 0 
0 0 0 
0 0 0 
0 0 0 
0 0 0 
0 0 0 
0 0 0 
0 0 0 
0 0 0 
0 0 0 
0 0 0 
0 0 0 
0 0 0 
0 0 0 
0 0 0 
0 0 0 
0 0 0 
0 0 0 
0 0 0 
0 0 0 
0 0 0 
0 0 0 
0 0 0 
0 0 0 
0 0 0 
0 0 0 
0 0 0 
0 0 0 
0 0 0 
0 0 0 
0 0 0 
0 0 0 
0 0 0 
0 0 0 
0 0 0 
0 0 0 
0 0 0 
0 0 0 
0 0 0 
0 0 0 
0 0 0 
SCALARS num_collisions int 1
LOOKUP_TABLE default
1 
1 
1 
1 
1 
1 
1 
1 
1 
1 
1 
1 
1 
1 
1 
1 
1 
1 
1 
1 
1 
1 
1 
1 
1 
1 
1 
1 
1 
1 
1 
1 
1 
1 
1 
1 
1 
1 
1 
1 
1 
1 
1 
1 
1 
1 
1 
1 
1 
1 
1 
1 
1 
1 
1 
1 
1 
1 
1 
1 
1 
1 
1 
1 
1 
1 
1 
1 
1 
1 
1 
1 
1 
1 
1 
1 
1 
1 
1 
1 
1 
1 
1 
1 
1 
1 
1 
1 
1 
1 
1 
1 
1 
1 
1 
1 
1 
1 
1 
1 
1 
1 
1 
1 
1 
1 
1 
1 
1 
1 
1 
1 
1 
1 
1 
1 
1 
1 
1 
1 
1 
1 
1 
1 
1 
1 
1 
1 
1 
1 
1 
1 
1 
1 
1 
1 
1 
1 
1 
1 
1 
1 
1 
1 
1 
1 
1 
1 
1 
1 
1 
1 
1 
1 
1 
1 
1 
1 
1 
1 
1 
1 
1 
1 
1 
1 
1 
1 
1 
1 
1 
1 
1 
1 
1 
1 
1 
1 
1 
1 
1 
1 
1 
1 
1 
1 
1 
1 
1 
1 
1 
1 
1 
1 
1 
1 
1 
1 
1 
1 
1 
1 
VECTORS pos double
-0.393724 -0.394586 -0.424054 
-0.403333 -0.203333 -0.412405 
-0.389034 -0.0123767 -0.423266 
-0.402763 0.397237 -0.412403 
-0.270024 -0.412021 -0.420727 
-0.203538 -0.203538 -0.412403 
-0.203218 -0.00321788 -0.412406 
-0.185755 0.209985 -0.42319 
-0.200991 0.394487 -0.455319 
-0.0320353 -0.395792 -0.417662 
-0.00366947 -0.203669 -0.412405 
-0.00360232 -0.00360232 -0.412403 
-0.0086616 0.191916 -0.397747 
-0.01535 0.175901 -0.394342 
-0.0603986 0.411734 -0.427076 
0.196486 -0.399187 -0.425735 
0.186072 -0.183825 -0.423806 
0.21031 0.000748348 -0.425709 
0.196503 0.0420849 -0.443712 
0.396713 -0.403287 -0.412405 
0.39667 -0.209312 -0.412468 
-0.388327 -0.403329 -0.349428 
-0.403333 -0.203333 -0.320683 
-0.384956 -0.0141674 -0.344894 
-0.402763 0.397237 -0.320681 
-0.349349 -0.41502 -0.335735 
-0.292982 -0.401528 -0.339132 
-0.203538 -0.203538 -0.320679 
-0.203218 -0.00321788 -0.320685 
-0.197256 0.434486 -0.428162 
-0.0103582 -0.41334 -0.362222 
-0.0916108 -0.412835 -0.368541 
-0.00366947 -0.203669 -0.320684 
-0.00360232 -0.00360232 -0.32068 
0.196957 -0.395208 -0.346908 
0.166236 -0.179003 -0.349282 
0.211303 0.00422066 -0.349263 
0.396713 -0.403287 -0.320684 
0.396626 -0.207264 -0.320868 
-0.391216 -0.405547 -0.271199 
-0.403333 -0.203333 -0.22897 
-0.373816 -0.00798126 -0.26732 
-0.402763 0.397237 -0.228967 
-0.203538 -0.203538 -0.228965 
-0.203218 -0.00321788 -0.228972 
-0.177725 0.189446 -0.326836 
-0.213926 0.418606 -0.347678 
0.0530136 -0.437891 -0.297677 
-0.00366947 -0.203669 -0.228971 
-0.00360232 -0.00360232 -0.228966 
-0.0423846 0.246195 -0.294992 
0.20707 -0.397692 -0.266958 
0.164673 -0.19607 -0.285861 
0.214978 0.00456393 -0.273282 
0.396713 -0.403287 -0.228971 
0.396597 -0.203313 -0.229265 
-0.391962 -0.408214 -0.189899 
-0.403333 -0.203333 -0.13727 
-0.383527 -0.00397661 -0.188899 
-0.337713 0.203365 -0.124715 
-0.402763 0.397237 -0.137266 
-0.203538 -0.203538 -0.137264 
-0.203218 -0.00321788 -0.137273 
-0.00366947 -0.203669 -0.137272 
-0.00360232 -0.00360232 -0.137265 
-0.0147263 0.173823 -0.292823 
0.209533 -0.399879 -0.193321 
0.198083 -0.237071 -0.179382 
0.211806 0.00724851 -0.197943 
0.396713 -0.403287 -0.137271 
0.396611 -0.203028 -0.137556 
-0.393426 -0.405721 -0.112708 
-0.403333 -0.203333 -0.0455862 
-0.404093 -0.00959721 -0.117689 
-0.402763 0.397237 -0.0455822 
-0.214758 -0.402641 -0.278213 
-0.203538 -0.203538 -0.0455797 
-0.203218 -0.00321788 -0.0455892 
-0.197205 0.189816 -0.226831 
-0.00366947 -0.203669 -0.0455881 
-0.00360232 -0.00360232 -0.0455811 
0.00223588 0.195881 -0.224438 
-0.0410223 0.41392 -0.340309 
0.208314 -0.399628 -0.116465 
0.220809 -0.225223 -0.117813 
0.208132 0.00499158 -0.121927 
0.396713 -0.403287 -0.0455872 
0.39661 -0.203442 -0.0458269 
-0.393524 -0.396444 -0.0340566 
-0.403333 -0.203333 0.0460802 
-0.409732 -0.0119776 -0.028897 
-0.307163 0.20792 -0.0361453 
-0.402763 0.397237 0.0460843 
-0.17987 -0.409853 -0.195837 
-0.203538 -0.203538 0.0460868 
-0.203218 -0.00321788 0.0460772 
-0.212024 0.189222 -0.156336 
-0.00366947 -0.203669 0.0460782 
-0.00360232 -0.00360232 0.0460853 
0.0210664 0.199115 -0.154082 
0.200689 -0.398217 -0.0404291 
0.20883 -0.239343 -0.0334766 
0.207684 0.0055871 -0.0459153 
0.154642 0.375882 -0.0959745 
0.396713 -0.403287 0.0460792 
0.396609 -0.203391 0.045909 
-0.389619 -0.392981 0.0454545 
-0.403333 -0.203333 0.137729 
-0.399341 -0.00562521 0.0461931 
-0.402763 0.397237 0.137733 
-0.179069 -0.405919 -0.104236 
-0.203538 -0.203538 0.137735 
-0.203218 -0.00321788 0.137726 
-0.00366947 -0.203669 0.137727 
-0.00360232 -0.00360232 0.137734 
-0.00811104 0.212452 -0.0849559 
0.20346 -0.402547 0.0477811 
0.179349 -0.208395 0.0480557 
0.21217 0.00645982 0.0301023 
0.21643 0.191799 -0.114658 
0.396713 -0.403287 0.137728 
0.39661 -0.203389 0.137629 
-0.38988 -0.395567 0.124263 
-0.403333 -0.203333 0.229362 
-0.393653 -0.0150452 0.121932 
-0.402763 0.397237 0.229366 
-0.203538 -0.203538 0.229368 
-0.203218 -0.00321788 0.22936 
-0.00366947 -0.203669 0.229361 
-0.00360232 -0.00360232 0.229367 
-0.0211904 0.203174 0.0182454 
0.205319 -0.413632 0.120611 
0.197943 -0.188367 0.148981 
0.219114 0.00424514 0.105479 
0.205373 0.179126 -0.0326975 
0.396713 -0.403287 0.229362 
0.39661 -0.203391 0.229313 
-0.391734 -0.406111 0.200245 
-0.403333 -0.203333 0.320983 
-0.388568 -0.0048365 0.20222 
-0.402763 0.397237 0.320986 
-0.203538 -0.203538 0.320987 
-0.203218 -0.00321788 0.320981 
-0.00366947 -0.203669 0.320982 
-0.00360232 -0.00360232 0.320986 
0.210668 -0.403569 0.198765 
0.201866 -0.185156 0.233467 
0.202124 0.00204455 0.18307 
0.199718 0.187949 0.051612 
0.396713 -0.403287 0.320982 
0.39661 -0.20339 0.320962 
-0.403333 -0.203333 0.412595 
-0.387066 -0.00593212 0.284992 
-0.402763 0.397237 0.412597 
-0.203538 -0.203538 0.412597 
-0.203218 -0.00321788 0.412594 
-0.00366947 -0.203669 0.412594 
-0.00360232 -0.00360232 0.412597 
0.222397 -0.400434 0.281446 
0.197496 -0.189214 0.316224 
0.396713 -0.403287 0.412594 
0.39661 -0.20339 0.412587 
-0.185553 0.500003 -0.38848 
-0.0559092 0.500002 -0.356309 
0.330146 0.5 -0.155303 
-0.203538 -0.203538 -0.5 
0.205673 -0.00248375 -0.500032 
-0.395042 -0.00931959 -0.500025 
0.359584 0.333018 -0.500002 
-0.191537 -0.364166 -0.500003 
0.396673 -0.208154 -0.5 
-0.390505 -0.400343 -0.500062 
-0.0283852 0.214753 -0.500002 
0.194263 -0.395587 -0.500043 
0.199685 -0.186213 -0.500012 
-0.237017 0.368465 -0.500004 
-0.260743 -0.419198 -0.500009 
-0.00360232 -0.00360232 -0.5 
0.296004 0.0527154 -0.500003 
-0.403333 -0.203333 -0.5 
-0.285088 0.199768 -0.500004 
-0.00366947 -0.203669 -0.5 
0.0554396 0.347474 -0.500003 
-0.203218 -0.00321788 -0.5 
0.396713 -0.403287 -0.5 
-0.181387 0.225817 -0.500025 
-0.00481989 -0.387911 -0.50001 
0.388096 0.441836 -0.500003 
-0.136913 0.406498 -0.500006 
0.0261143 0.186978 -0.500008 
0.148363 0.194733 -0.500002 
0.220047 0.135425 -0.500003 
-0.402763 0.397237 -0.5 
-0.0405787 0.40163 -0.500012 
-0.00366947 -0.203669 0.5 
-0.203538 -0.203538 0.5 
0.39661 -0.20339 0.5 
-0.403333 -0.203333 0.5 
-0.00360232 -0.00360232 0.5 
-0.402763 0.397237 0.5 
0.396713 -0.403287 0.5 
-0.203218 -0.00321788 0.5 
VECTORS dir_n double
-0.055144 -0.00585545 -0.998461 
6.02717e-20 0 -1 
0.145224 -0.0385584 -0.988647 
6.02797e-20 0 -1 
0.499966 -0.159922 -0.851152 
6.02841e-20 0 -1 
6.02663e-20 0 -1 
0.445273 -0.0684964 -0.892771 
-0.748496 -0.56538 -0.346553 
-0.0339037 -0.209778 -0.977161 
6.02676e-20 0 -1 
6.02813e-20 0 -1 
0.28682 -0.692985 -0.661443 
-0.0350747 0.293472 -0.955324 
0.180228 0.168203 -0.969136 
0.222102 -0.0335741 -0.974445 
-0.0944492 -0.0132883 -0.995441 
-0.157877 -0.0353418 -0.986826 
-0.0461289 -0.937038 -0.346167 
6.02702e-20 0 -1 
5.95073e-05 0.0252485 -0.999681 
0.177697 0.127202 -0.97583 
6.02427e-20 0 -1 
0.0881834 -0.104362 -0.990622 
6.02499e-20 0 -1 
-0.843014 0.426417 0.327867 
-0.57834 0.0223938 -0.815488 
6.02537e-20 0 -1 
6.02387e-20 0 -1 
0.536331 -0.592354 -0.60122 
-0.716939 0.454979 -0.528198 
0.936229 0.280732 -0.211339 
6.02393e-20 0 -1 
6.02511e-20 0 -1 
0.353993 0.0545542 -0.933655 
0.0668708 0.0690131 -0.995372 
-0.106149 -0.077756 -0.991305 
6.02418e-20 0 -1 
0.000914264 -0.0699009 -0.997554 
0.341544 0.140192 -0.929351 
6.01887e-20 0 -1 
0.343861 0.0190781 -0.938827 
6.01945e-20 0 -1 
6.01972e-20 0 -1 
6.01848e-20 0 -1 
0.354855 0.386889 -0.851114 
0.673306 0.24184 -0.698694 
-0.633656 -0.087804 -0.768616 
6.0186e-20 0 -1 
6.01952e-20 0 -1 
-0.0516144 0.226897 -0.97255 
-0.212563 0.148987 -0.965722 
-0.293908 0.646145 -0.704354 
-0.00262307 -0.0314316 -0.999502 
6.0187e-20 0 -1 
-0.00027771 -0.0162481 -0.999868 
0.0478003 0.0517868 -0.997514 
6.01174e-20 0 -1 
0.439294 0.0675782 -0.895798 