# vtk DataFile Version 2.0
Generated by NetDEM
ASCII 
DATASET POLYDATA
POINTS 950 double
-0.423356 -0.391123 -0.461597 
-0.440329 -0.399633 -0.391781 
-0.423356 -0.391123 -0.461597 
-0.353448 -0.385956 -0.390094 
-0.449996 -0.191027 -0.450039 
-0.423132 -0.107604 -0.409206 
-0.449996 -0.191027 -0.450039 
-0.449942 -0.275059 -0.395834 
-0.404962 -0.0129517 -0.462194 
-0.358958 0.0705261 -0.432585 
-0.404962 -0.0129517 -0.462194 
-0.407807 -0.014155 -0.390189 
-0.449981 0.10805 -0.450024 
-0.449999 0.0710379 -0.357121 
-0.449981 0.10805 -0.450024 
-0.358958 0.0705261 -0.432585 
-0.450028 0.349839 -0.45006 
-0.447629 0.279392 -0.379153 
-0.188894 -0.00624972 -0.450028 
-0.123295 -0.0528199 -0.390661 
-0.188894 -0.00624972 -0.450028 
-0.239717 0.0036141 -0.355197 
-0.173373 0.178701 -0.463926 
-0.253536 0.19845 -0.39559 
-0.173373 0.178701 -0.463926 
-0.136823 0.150869 -0.401958 
-0.173373 0.178701 -0.463926 
-0.169822 0.0792001 -0.451622 
-0.255823 0.369054 -0.464355 
-0.227461 0.338904 -0.395094 
-0.049501 -0.412105 -0.455965 
0.0485953 -0.439873 -0.450801 
-0.049501 -0.412105 -0.455965 
-0.097855 -0.362877 -0.396243 
-0.151684 -0.129975 -0.450024 
-0.192993 -0.15273 -0.361863 
-0.0531666 -0.0921638 -0.450042 
-0.123295 -0.0528199 -0.390661 
-0.0531666 -0.0921638 -0.450042 
-0.00380405 -0.0278941 -0.387721 
-0.0284706 0.320271 -0.44386 
-0.118566 0.312394 -0.414289 
0.192696 -0.40745 -0.463786 
0.153897 -0.328843 -0.395461 
0.192696 -0.40745 -0.463786 
0.195873 -0.423032 -0.392039 
0.165858 -0.208884 -0.46349 
0.266779 -0.211817 -0.449859 
0.165858 -0.208884 -0.46349 
0.167494 -0.211087 -0.390426 
0.171581 -0.00277099 -0.463099 
0.175509 0.0209681 -0.387568 
0.294036 0.406584 -0.420482 
0.37239 0.440952 -0.464779 
0.294036 0.406584 -0.420482 
0.28645 0.36593 -0.329446 
0.449823 -0.411656 -0.450072 
0.376154 -0.450034 -0.394475 
0.449823 -0.411656 -0.450072 
0.436478 -0.353958 -0.369521 
0.340618 -0.0103191 -0.45009 
0.318664 0.0495576 -0.373042 
0.340618 -0.0103191 -0.45009 
0.252549 -0.0576401 -0.450051 
0.340618 -0.0103191 -0.45009 
0.342384 -0.0656357 -0.366776 
0.374537 0.0854409 -0.450011 
0.450002 0.0583142 -0.390274 
0.37239 0.440952 -0.464779 
0.401597 0.451897 -0.375126 
-0.440329 -0.399633 -0.391781 
-0.435984 -0.440144 -0.328586 
-0.407807 -0.014155 -0.390189 
-0.450984 -0.027637 -0.322296 
-0.407807 -0.014155 -0.390189 
-0.423132 -0.107604 -0.409206 
-0.446009 0.178714 -0.378898 
-0.429309 0.14037 -0.28811 
-0.446009 0.178714 -0.378898 
-0.43214 0.249012 -0.458851 
-0.44952 0.449967 -0.450016 
-0.36245 0.383076 -0.410398 
-0.44952 0.449967 -0.450016 
-0.449988 0.435302 -0.351106 
-0.353448 -0.385956 -0.390094 
-0.435984 -0.440144 -0.328586 
-0.353448 -0.385956 -0.390094 
-0.331299 -0.327402 -0.303869 
-0.163932 -0.100324 -0.222086 
-0.185406 -0.06561 -0.313347 
-0.163932 -0.100324 -0.222086 
-0.115829 -0.103707 -0.134494 
-0.163932 -0.100324 -0.222086 
-0.203811 -0.16228 -0.154482 
-0.152964 0.406303 -0.453075 
-0.133297 0.441131 -0.358858 
-0.152964 0.406303 -0.453075 
-0.221958 0.46225 -0.451664 
0.300019 -0.250881 -0.147469 
0.296831 -0.330101 -0.181755 
0.300019 -0.250881 -0.147469 
0.259341 -0.180909 -0.0887903 
-0.0514596 -0.0158402 -0.313402 
-0.000288976 -0.000899137 -0.228801 
-0.0514596 -0.0158402 -0.313402 
-0.113606 -0.0147753 -0.23507 
0.0316142 0.26114 -0.452091 
-0.0385331 0.225197 -0.396759 
0.0316142 0.26114 -0.452091 
0.0933852 0.245005 -0.370318 
0.128336 0.303488 -0.445398 
0.0699186 0.398373 -0.41433 
0.195873 -0.423032 -0.392039 
0.185981 -0.448068 -0.322651 
0.167494 -0.211087 -0.390426 
0.218694 -0.197179 -0.316109 
0.175509 0.0209681 -0.387568 
0.159288 0.0685448 -0.336113 
0.195515 0.113666 -0.454691 
0.112769 0.139037 -0.395059 
0.28645 0.36593 -0.329446 
0.302664 0.335121 -0.237243 
0.28645 0.36593 -0.329446 
0.245388 0.449096 -0.292087 
0.376154 -0.450034 -0.394475 
0.302972 -0.396353 -0.352506 
0.376154 -0.450034 -0.394475 
0.450018 -0.444433 -0.327349 
0.436478 -0.353958 -0.369521 
0.449977 -0.305858 -0.282912 
0.425829 0.342048 -0.456794 
0.331569 0.312284 -0.41144 
0.425829 0.342048 -0.456794 
0.438179 0.370577 -0.378136 
-0.299056 -0.000544384 -0.438872 
-0.264002 0.0928952 -0.410575 
-0.286111 0.275784 -0.450021 
-0.356452 0.239487 -0.388934 
-0.447629 0.279392 -0.379153 
-0.43214 0.249012 -0.458851 
-0.447629 0.279392 -0.379153 
-0.413264 0.267355 -0.286141 
0.196336 -0.357252 -0.299579 
0.252074 -0.305456 -0.338954 
0.196336 -0.357252 -0.299579 
0.185981 -0.448068 -0.322651 
-0.169822 0.0792001 -0.451622 
-0.264002 0.0928952 -0.410575 
-0.169822 0.0792001 -0.451622 
-0.149406 0.0595458 -0.352233 
-0.349249 0.335374 -0.339827 
-0.36245 0.383076 -0.410398 
0.0485953 -0.439873 -0.450801 
0.0701271 -0.34046 -0.436381 
0.20595 -0.277827 -0.181686 
0.296831 -0.330101 -0.181755 
0.203282 0.0528227 -0.225912 
0.200851 0.133792 -0.278478 
0.203282 0.0528227 -0.225912 
0.114797 0.0737309 -0.276803 
0.203282 0.0528227 -0.225912 
0.173678 0.037247 -0.140224 
0.254404 0.331961 -0.463907 
0.198227 0.385454 -0.398654 
0.254404 0.331961 -0.463907 
0.331569 0.312284 -0.41144 
0.185981 -0.448068 -0.322651 
0.25641 -0.444315 -0.252737 
0.185981 -0.448068 -0.322651 
0.0751884 -0.459077 -0.352491 
0.0545554 -0.100728 -0.451418 
0.0529105 -0.121956 -0.358991 
0.112769 0.139037 -0.395059 
0.0359172 0.125776 -0.335896 
0.373184 -0.209372 -0.450057 
0.450064 -0.211372 -0.386214 
0.373184 -0.209372 -0.450057 
0.326298 -0.172357 -0.369866 
0.376551 -0.109415 -0.450022 
0.449851 -0.103256 -0.382306 
0.450006 0.221721 -0.36802 
0.436313 0.254685 -0.460434 
0.450006 0.221721 -0.36802 
0.450045 0.210284 -0.268739 
-0.431361 -0.452517 -0.244605 
-0.383871 -0.439475 -0.172797 
-0.192993 -0.15273 -0.361863 
-0.233899 -0.171348 -0.272541 
-0.239717 0.0036141 -0.355197 
-0.185406 -0.06561 -0.313347 
-0.239717 0.0036141 -0.355197 
-0.295478 -0.0424864 -0.289506 
-0.34978 0.142838 -0.364121 
-0.283721 0.0883014 -0.312596 
-0.34978 0.142838 -0.364121 
-0.356452 0.239487 -0.388934 
-0.34978 0.142838 -0.364121 
-0.339949 0.199498 -0.282331 
-0.123295 -0.0528199 -0.390661 
-0.185406 -0.06561 -0.313347 
-0.0559876 0.131416 -0.448391 
-0.136823 0.150869 -0.401958 
-0.0559876 0.131416 -0.448391 
-0.0581011 0.100637 -0.337945 
0.0751884 -0.459077 -0.352491 
0.129924 -0.45318 -0.258805 
0.444358 -0.345146 -0.100996 
0.357604 -0.389012 -0.106974 
0.444358 -0.345146 -0.100996 
0.450004 -0.26948 -0.0359132 
0.444358 -0.345146 -0.100996 
0.450013 -0.418679 -0.168454 
0.444358 -0.345146 -0.100996 
0.450008 -0.392003 -0.0128512 
-0.196938 -0.233367 -0.450076 
-0.16985 -0.289572 -0.361892 
0.0699186 0.398373 -0.41433 
-0.00441116 0.433744 -0.463328 
0.25641 -0.444315 -0.252737 
0.297491 -0.388509 -0.227854 
0.114797 0.0737309 -0.276803 
0.111684 0.160192 -0.237038 
0.114797 0.0737309 -0.276803 
0.0325273 0.0685762 -0.268576 
0.266263 0.173316 -0.440801 
0.253678 0.246134 -0.386554 
0.266263 0.173316 -0.440801 
0.347012 0.213495 -0.41042 
0.141507 0.449828 -0.450016 
0.13708 0.448844 -0.350125 
0.141507 0.449828 -0.450016 
0.198227 0.385454 -0.398654 
0.449851 -0.103256 -0.382306 
0.443579 -0.0219791 -0.324412 
0.449851 -0.103256 -0.382306 
0.449929 -0.0297315 -0.45004 
0.449851 -0.103256 -0.382306 
0.450001 -0.147788 -0.292798 
0.38681 0.147092 -0.347128 
0.347012 0.213495 -0.41042 
0.331569 0.312284 -0.41144 
0.347012 0.213495 -0.41042 
0.438179 0.370577 -0.378136 
0.401597 0.451897 -0.375126 
-0.383871 -0.439475 -0.172797 
-0.367804 -0.35187 -0.135876 
-0.367804 -0.35187 -0.135876 
-0.291698 -0.348673 -0.073191 
-0.367804 -0.35187 -0.135876 
-0.390466 -0.295647 -0.215345 
-0.367804 -0.35187 -0.135876 
-0.395317 -0.280702 -0.0981666 
-0.295478 -0.0424864 -0.289506 
-0.330851 -0.104486 -0.216004 
-0.449988 0.435302 -0.351106 
-0.449976 0.361534 -0.283593 
-0.449988 0.435302 -0.351106 
-0.364362 0.449894 -0.30156 
-0.0757169 -0.142096 -0.366391 
-0.126879 -0.196427 -0.299841 
-0.00380405 -0.0278941 -0.387721 
0.0265872 0.043831 -0.359081 
-0.00380405 -0.0278941 -0.387721 
0.101783 -0.0464977 -0.34495 
0.0529105 -0.121956 -0.358991 
0.0177584 -0.0908084 -0.270709 
0.0265872 0.043831 -0.359081 
0.0359172 0.125776 -0.335896 
-0.00441116 0.433744 -0.463328 
-0.00268517 0.403504 -0.371221 
0.297491 -0.388509 -0.227854 
0.351607 -0.309985 -0.261824 
0.297491 -0.388509 -0.227854 
0.296831 -0.330101 -0.181755 
0.0325273 0.0685762 -0.268576 
-0.0125605 0.10886 -0.206102 
0.0325273 0.0685762 -0.268576 
0.0359172 0.125776 -0.335896 
0.253678 0.246134 -0.386554 
0.196248 0.305242 -0.34325 
0.344963 0.45001 -0.278949 
0.384113 0.429465 -0.20512 
0.450064 -0.211372 -0.386214 
0.385355 -0.230756 -0.312563 
0.401597 0.451897 -0.375126 
0.440518 0.409346 -0.301963 
-0.461865 -0.452139 -0.131707 
-0.433789 -0.45757 -0.0202195 
-0.321759 -0.141401 -0.309736 
-0.409929 -0.182301 -0.333231 
-0.321759 -0.141401 -0.309736 
-0.233899 -0.171348 -0.272541 
-0.170333 -0.385058 -0.333995 
-0.16985 -0.289572 -0.361892 
-0.136823 0.150869 -0.401958 
-0.12127 0.189767 -0.336875 
-0.227461 0.338904 -0.395094 
-0.118566 0.312394 -0.414289 
0.277122 -0.321895 -0.0806264 
0.357604 -0.389012 -0.106974 
0.450003 0.053309 -0.17299 
0.36133 0.0110136 -0.154328 
0.0359172 0.125776 -0.335896 
0.0148821 0.203182 -0.307202 
-0.118566 0.312394 -0.414289 
-0.161804 0.348449 -0.331949 
0.196248 0.305242 -0.34325 
0.198227 0.385454 -0.398654 
0.196248 0.305242 -0.34325 
0.18966 0.362002 -0.269549 
0.450018 -0.444433 -0.327349 
0.403873 -0.394834 -0.253858 
0.252549 -0.0576401 -0.450051 
0.244418 -0.0518141 -0.350621 
0.440518 0.409346 -0.301963 
0.44676 0.379342 -0.218004 
-0.433789 -0.45757 -0.0202195 
-0.421972 -0.378397 0.0376781 
-0.423132 -0.107604 -0.409206 
-0.409929 -0.182301 -0.333231 
-0.208303 0.268913 -0.340801 
-0.10624 0.274568 -0.333668 
-0.208303 0.268913 -0.340801 
-0.223144 0.191048 -0.27985 
0.144343 -0.449454 -0.098443 
0.161021 -0.346163 -0.107411 
-0.302311 0.368984 -0.195541 
-0.244386 0.299342 -0.217203 
-0.302311 0.368984 -0.195541 
[...]
POINT_DATA 950
SCALARS id int 1
LOOKUP_TABLE default
0
25
0
30
1
152
1
26
2
103
2
27
3
178
3
103
4
54
7
81
7
77
8
128
8
133
8
58
9
134
10
60
10
35
11
76
12
81
12
108
14
139
15
91
15
40
16
47
16
41
17
42
19
24
19
44
20
45
20
46
22
172
22
147
22
171
23
148
24
124
25
50
27
127
27
152
28
303
28
109
29
84
29
104
30
50
30
250
32
162
32
386
32
132
34
184
34
159
36
240
36
396
37
312
37
237
38
63
38
269
39
89
40
65
41
216
42
67
43
69
44
318
44
194
45
120
45
145
46
195
49
98
49
99
52
78
53
154
54
109
54
179
56
241
56
65
58
78
58
203
59
84
60
110
61
240
62
193
62
92
62
417
64
144
64
98
65
90
65
85
66
112
69
138
71
121
71
146
72
96
73
74
73
273
75
100
76
151
77
162
77
102
79
307
79
154
79
279
81
162
83
133
83
213
85
140
86
265
86
371
86
345
86
261
87
155
89
114
90
115
92
342
92
117
93
118
93
123
94
169
94
144
96
222
96
122
96
196
97
123
98
123
99
124
100
101
101
300
101
326
101
302
102
357
104
329
104
204
106
251
108
113
108
191
112
186
113
138
114
189
115
270
115
240
117
238
117
138
118
143
119
199
121
170
124
149
125
150
126
311
126
151
130
155
133
183
134
139
136
265
137
372
138
163
139
209
143
144
143
219
145
220
147
322
149
174
150
350
152
311
153
158
153
253
156
340
157
258
157
328
161
390
161
360
161
341
163
188
164
188
164
269
167
216
167
192
168
268
170
271
170
270
171
297
172
197
172
223
173
198
174
224
176
277
177
301
178
303
179
328
179
279
182
309
182
333
183
208
184
282
186
331
189
263
192
217
193
218
194
319
195
221
196
221
197
272
197
347
201
354
204
254
209
234
211
412
212
313
212
238
216
341
217
396
218
269
219
344
220
345
220
270
221
296
221
295
222
347
223
348
224
249
227
328
227
304
228
429
228
404
229
304
229
429
229
454
231
383
232
381
232
456
232
325
232
356
233
388
233
253
234
288
235
280
236
386
236
406
238
337
239
289
239
264
239
262
240
270
242
372
242
370
242
391
243
294
244
444
244
344
244
299
245
265
245
345
247
343
248
373
249
421
257
352
257
258
258
283
259
333
259
263
261
320
261
470
266
366
266
271
267
322
268
293
268
368
271
297
274
324
274
449
275
300
275
455
275
400
278
327
278
303
286
439
287
338
287
387
288
308
288
289
292
317
298
398
300
355
300
381
301
377
302
325
308
332
308
383
311
351
313
338
314
339
316
422
316
472
316
321
317
437
318
374
321
471
323
348
326
351
327
353
330
355
334
364
337
388
338
413
339
469
343
398
347
372
349
474
350
425
352
408
352
354
353
452
354
453
355
430
356
357
358
404
359
409
359
414
360
365
362
417
367
472
367
392
368
393
369
389
369
494
370
420
371
420
373
397
373
422
378
429
380
480
383
384
384
438
386
461
387
417
388
447
389
489
389
439
389
469
393
418
393
468
393
494
395
490
395
470
397
423
403
453
406
480
408
484
409
434
410
417
412
482
414
464
418
421
420
471
423
498
424
474
432
487
432
482
438
462
440
495
443
473
447
457
449
499
452
477
453
478
454
459
468
493
468
473
470
495
470
491
471
496
472
492
473
492
482
485
494
499
176
0
127
0
354
0
304
0
351
0
4
0
125
0
378
0
73
1
273
1
137
1
196
1
148
1
272
1
399
1
474
1
420
1
174
1
345
1
366
1
316
1
261
1
371
1
99
1
145
1
121
1
90
2
455
2
100
2
45
2
445
2
75
2
245
2
85
2
320
2
304
3
124
3
259
3
239
3
319
3
314
3
184
3
364
3
274
3
499
3
344
3
419
3
379
3
284
3
119
3
286
3
122
4
49
4
34
4
18
4
72
4
131
4
74
4
71
4
64
4
21
4
7
4
16
4
24
4
88
4
14
4
6
4
17
4
68
4
87
4
11
4
180
4
1
4
20
4
9
4
31
4
0
4
66
4
3
4
159
4
4
4
22
4
39
4
13
4
58
4
15
4
8
4
43
4
53
4
12
4
5
4
94
4
70
4
33
4
52
4
23
4
60
4
29
4
38
4
10
4
114
4
2
4
147
4
109
4
CELL_DATA 475
VECTORS force double
-14.1124 10.7347 -51.2696 
15.3996 43.4009 -9.11759 
92.3511 -84.8392 13.3226 
0.889971 -41.7323 -13.9975 
17.6712 -76.4862 -82.4025 
94.2779 52.318 -218.529 
-1.05847 -0.571232 -234.377 
-26.6801 -11.8087 -51.8587 
-1984.46 593.093 -2488.24 
-264.488 -59.2862 574.72 
-243.986 -328.339 1106.41 
83.2298 -16.86 19.5703 
94.7975 -28.0689 -20.766 
57.6493 -5.79931 8.01544 
-507.343 17.2768 -512.094 
-1.43605 1.29115 2.78321 
0.0973029 -1.84923 -1.25561 
5.72317 4.0888 -33.5603 
-602.616 -231.789 590.609 
-409.752 -152.22 530.906 
84.08 -25.1031 -162.816 
5.94072 -6.92964 -15.2486 
6.30163 6.90154 -37.0796 
-6.18178 -46.3041 -54.3506 
-26.1856 18.614 -139.486 
14.1435 -23.6468 -96.6755 
-8.03064 -6.83657 20.8455 
5.10256 4.05753 -26.4872 
40.2426 21.2315 -90.5649 
2.0406 -23.3152 -39.1861 
-139.077 -207.225 -529.865 
481.6 92.6255 -2199.08 
17.8096 26.9006 -682.854 
-3.76217 1.19916 -8.27889 
-7.11432 48.5689 -8.90181 
25.5888 -69.7055 -1.01692 
-43.5916 43.6757 188.493 
-68.9663 -19.554 236.301 
-354.226 -848.736 588.411 
1233.7 -513.323 1373.91 
-0.853015 1.55681 -3.86911 
-1.2205 1.68954 -16.191 
40.3054 25.4112 -69.165 
-20.6014 -39.8323 18.6028 
-27.4011 211.841 -301.297 
-82.5873 27.4981 -135.645 
-39.8382 53.918 -159.899 
0.585471 -8.13803 -26.1445 
0.404819 -0.232822 2.62435 
54.9466 -229.57 -234.388 
47.9061 -155.854 -106.724 
-8.21423 -1.83975 -8.78854 
6.1427 0.516166 -1.7437 
-85.588 172.84 129.293 
-100.279 225.234 493.241 
-14.2603 12.777 -18.6475 
12.4673 4.79039 -21.9599 
72.2488 64.5319 -47.2897 
5.2592 4.40379 -17.5231 
-25.5511 -40.2772 113.709 
0.306009 3.00544 -7.35702 
2.33158 -2.30827 -12.5516 
6.87388 1.38347 -11.2 
-27.1531 -6.70793 -82.0621 
-0.646695 -18.2181 -26.0504 
231.24 119.552 231.096 
192.969 13.322 81.3079 
-11.0575 -12.3231 -3.98228 
12.5587 15.7476 -24.6312 
1680.86 19.1756 2596.56 
381.126 -590.193 2147.13 
-0.252184 -1.60304 0.40439 
2.18533 7.58336 5.07139 
10.2687 10.8959 -12.7277 
-7.32616 7.14503 -17.9464 
2.30548 -1.87473 1.71651 
0.505947 0.434684 -0.837019 
87.1319 -242.112 -207.118 
79.7009 -70.9961 64.65 
66.4549 -6.83572 13.7752 
2.74801 23.971 -73.7783 
166.736 138.971 -362.842 
180.338 74.1699 -84.8203 
1.95605 -7.13165 -0.731521 
20.8196 8.11404 -2.32671 
6.68957 -4.75982 -15.844 
264.861 507.769 -212.285 
-25.1813 4.13126 -142.17 
24.0301 -0.987678 -18.0648 
-18.729 -2.68458 -41.4043 
168.361 -47.804 364.754 
39.2131 -25.0861 187.182 
-7.03159 -16.0632 -13.3815 
-27.757 15.2609 -14.614 
778.051 -151.726 -1174.58 
946.787 -359.076 -661.395 
171.44 -505.586 -389.83 
9.43742 -220.758 106.897 
685.896 -884.708 -287.209 
700.407 -427.063 -724.844 
111.661 -53.5118 44.8833 
116.83 -14.0061 -17.9655 
-4.20045 -2.99908 -9.52253 
-5.48155 8.64969 -27.1651 
-1.65361 -53.0716 -33.5359 
4.5514 79.4374 128.26 
38.4069 9.36766 -24.9749 
-13.8453 67.0734 -117.865 
12.2273 -77.8305 -243.094 
-8.15584 -66.2496 29.8283 
-15.3271 8.03268 -12.6501 
-148.776 32.4887 61.5259 
-257.172 -527.018 -897 
-221.412 -158.718 -35.9471 
6.16334 20.453 -20.5414 
3.21762 67.6503 -55.4169 
-2.33358 -13.1375 -35.1831 
-0.229144 -24.4885 59.7729 
-6.8385 30.0618 -48.6342 
-34.1698 -34.8738 -1.59564 
-175.719 -96.7412 -42.2879 
-52.8509 -61.9343 28.5509 
-1.79427 -86.471 -14.6517 
-40.4886 13.1048 -59.0541 
37.2903 -75.3221 65.6441 
-3.13118 -15.2558 -13.3901 
37.2221 -253.469 -37.7445 
-0.090881 1.78629 -2.68704 
-2.0908 -0.0631239 -3.91413 
11.565 18.9874 -22.318 
-93.2279 -176.429 52.911 
-57.2045 -61.4972 15.1863 
4.23178 0.672171 -1.52983 
236.745 290.489 -313.178 
-43.8287 95.1409 180.733 
-316.373 425.055 267.593 
-58.1386 -332.246 -39.7862 
156.272 75.0921 -398.289 
265.09 122.339 -460.605 
43.909 490.769 242.041 
-26.3914 39.4372 -34.8332 
37.1549 -18.4204 -13.7258 
-22.7739 73.1869 -144.282 
-5.93202 -1.13246 -6.79309 
-68.6957 131.55 -73.5172 
-83.1861 29.0683 21.58 
15.0337 -71.6206 51.7719 
-51.4282 22.9896 -32.6725 
398.449 23.3838 685.247 
-8.98019 10.2198 8.91154 
2.24063 -2.25766 9.52311 
13.9391 -497.832 -141.534 
-433.665 6.12232 -522.875 
170.228 -201.662 -402.309 
197.459 -132.588 -322.512 
106.171 -192.242 -87.7161 
-1147.18 -411.492 1031.07 
37.945 1.43208 615.069 
-0.586317 -1.21416 -4.48854 
-164.802 169.021 -171.617 
-23.6877 13.5111 -50.3948 
-4.34367 47.3793 -45.927 
-81.201 -115.433 51.3652 
36.606 17.8877 -36.7671 
-16.9952 -129.561 -263.832 
-15.6547 -178.237 142.259 
-257.885 -197.843 317.188 
-330.308 26.9097 396.719 
-94.6921 136.252 69.2548 
-190.442 179.281 145.354 
70.4696 53.8839 461.221 
636.684 308.588 -34.0221 
336.071 98.4159 22.6498 
-434.826 751.735 -1027.7 
35.4336 -24.8081 -62.0417 
189.695 173.437 -191.196 
2.17516 11.6277 -25.5833 
-37.4581 20.9495 -40.3833 
10.2014 -15.0623 -2.99429 
18.0705 9.98901 3.83465 
-268.778 771.605 -1251.96 
-4.87074 1.17459 -11.7677 
66.7555 -13.6903 -31.1808 
-160.712 -521.485 691.093 
190.259 -571.892 -1275.57 
-123.538 -441.039 -1515.81 
-70.8533 20.5672 4.05194 
-118.395 -9.70807 -183.327 
5.52641 -2.16558 14.2433 
12.4314 0.405591 -15.6547 
0.582179 -0.0170392 -0.548795 
85.6393 -22.1047 -141.186 
-148.979 -20.5364 -45.8723 
-80.4419 160.188 -37.7195 
-1.51686 -8.74712 -12.1749 
-0.191396 -17.8766 -11.4791 
6.21339 28.2294 -31.0554 
-22.5638 -15.7917 6.07953 
-17.2307 35.4445 -58.6788 
-2.37346 16.5964 -18.8632 
-0.784828 -0.0754056 -0.957709 
-204.047 -241.079 169.222 
-3.88392 -3.44918 4.55195 
379.161 22.6771 545.878 
-53.1619 1.52664 -64.3766 
-464.211 -323.183 -34.0224 
22.2432 14.516 -33.3345 
217.986 -228.036 54.8467 
-6.58597 24.4492 16.2253 
-28.7947 81.4435 -133.933 
-393.334 205.391 280.432 
0.647533 -3.87445 -10.3505 
5.16618 9.68947 -13.8476 
11.5534 -19.9528 -21.6607 
-8.62512 -9.71358 -11.4618 
-267.117 -16.7491 638.212 
-102.935 -212.349 -525.76 
26.6867 -73.8472 -62.5194 
-1.56877 0.712587 2.51907 
0.873968 0.216216 0.325253 
8.76295 -48.2523 33.3644 
-0.19618 2.91397 5.39555 
-2.43829 10.2592 -24.3592 
-9.9473 33.7541 -12.5232 
1.94964 8.03031 2.84237 
-3.31785 -0.860008 -7.98118 
2.16364 2.55053 -1.24054 
4.69227 -8.22298 14.4716 
-10.1423 3.04887 12.7445 
-1.21112 -3.98566 1.72945 
188.051 629.077 79.6815 
-1.65715 -1.13362 0.750921 
-50.6816 -16.8506 18.5413 
5.54799 17.4977 -22.2781 
-114.984 71.5395 213.314 
-3.94764 679.745 392.694 
66.6204 653.676 73.0841 
76.0502 561.653 139.959 
-239.527 759.226 269.191 
-9.9476 -11.8033 45.0119 
-12.8257 19.9842 -22.7062 
96.878 -6.28832 -37.4809 
0.855465 0.417158 -0.644867 
-0.214793 0.994856 -3.99452 
2.74023 9.25046 22.0477 
-1.50771 1.274 -1.03375 
12.948 15.0079 -9.83795 
-36.1731 49.8856 27.7723 
-2.23696 -4.38872 -8.19282 
-4.42225 41.8406 107.59 
58.9369 6.39417 -302.759 
26.0308 9.75853 -18.8093 
-10.2149 19.6276 14.7314 
-34.5813 -1.97462 7.18253 
145.599 77.147 -481.005 
-13.1651 149.565 -326.057 
11.3165 16.6793 -6.44721 
27.583 -7.22486 -52.653 
-39.604 -15.8211 -18.9437 
-1.76248 12.7613 39.2629 
-146.743 16.8815 551.838 
-186.528 -136.198 994.495 
-435.567 174.637 93.0922 
12.1306 -27.7151 23.7408 
1.60462 19.4909 -14.1343 
7.74641 26.9426 -9.79777 
6.54434 -5.83792 16.4327 
-0.866403 6.24925 -9.23084 
0.913193 -2.16387 -2.31122 
-53.232 -164.595 369.55 
198.937 18.6722 841.304 
-10.5976 8.9985 -3.37959 
488.341 -475.235 -373.353 
-16.8358 -198.803 -253.97 
-432.874 -554.399 -70.64 
-350.994 429.311 195.479 
11.4465 -2.4689 -4.41114 
44.6024 30.0591 -65.0397 
-31.3117 16.9985 -35.504 
-1.81248 -9.9845 -1.34374 
-0.00088006 -1.13729 5.9536 
-3.91013 -12.9791 -7.11981 
73.4172 151.608 -88.8902 
-20.1371 150.508 -76.7133 
6.58785 -35.9116 -22.9368 
-33.6539 -730.812 -955.717 
-6.14381 9.33206 -14.2302 
37.4826 73.9476 -119.714 
99.9138 36.0556 -47.4463 
37.6005 80.8275 -67.7681 
6.2899 -5.63214 0.711216 
-0.23044 -0.487128 -1.67345 
-9.73816 29.3161 7.46873 
1.66802 7.79117 4.03959 
41.3611 -91.5867 80.7866 
-123.425 23.9563 -331.101 
1.04991 -1.07666 5.62368 
-4.06246 -2.60697 -7.31998 
64.5602 12.1113 -90.8293 
76.9067 432.083 594.295 
-5.56438 3.68954 -13.4478 
-55.9252 -36.7919 59.3551 
14.354 11.3367 -67.4064 
2.22127 -10.2431 11.8383 
0.0113484 -1.53377 -2.93489 
-9.35159 -1.1489 -9.753 
1.52665 -2.37579 -1.58619 
9.44329 -13.8881 94.2772 
1.52516 1.93579 -19.8606 
-16.5049 3.86365 -14.769 
14.6026 -9.19729 20.0572 
-0.50077 -0.157836 -0.107526 
7.56484 -1.74794 -10.4351 
-29.9617 9.17146 -18.9013 
191.579 87.1938 -193.745 
-10.5912 7.96065 9.04738 
2.28613 17.8235 -7.53991 
18.9836 1.07036 8.86682 
-23.2641 -50.5067 -112.07 
10.5764 -4.58612 -2.76094 
-10.1126 -0.00871926 8.05551 
-14.7525 30.6841 -2.84151 
2.15992 -59.4001 -25.6618 
4.87518 132.081 -227.427 
3.23736 248.909 -167.2 
0.473521 -2.31074 2.29675 
-1.89964 -4.01509 4.94829 
0.0996449 -23.5197 -5.16282 
-4.7823 10.186 -46.0088 
-3.80941 15.2101 -21.9218 
-74.8342 47.2291 5.69573 
-39.1274 17.7022 -13.7974 
-0.203299 -1.02111 -7.61191 
9.59855 -4.77246 1.12657 
4.51704 -1.75707 9.81869 
-6.3819 11.8045 10.0838 
-7.29657 9.12767 -23.3153 
2.83969 -1.88593 -3.93401 
2.68746 0.443968 1.28141 
-6.53976 1.829 8.31794 
5.13683 53.4459 60.6789 
-0.856476 -1.92166 2.02258 
3.73408 11.2235 -16.4495 
-1.23566 -0.440791 -0.0770682 
7.46195 4.23432 -8.39811 
1.00867 -17.0997 26.412 
-15.2289 3.2586 18.4975 
10.312 -25.3757 -41.7791 
0.00489464 -2.15157 1.18815 
-0.488613 -17.7712 -9.83717 
16.7401 31.2181 -68.9283 
-8.35427 10.3494 -20.1439 
-4.02622 -42.9795 10.487 
5.9333 -41.8964 -10.8283 
-0.174019 5.03125 33.7334 
-11.344 -6.57192 12.1965 
0.730258 -1.36827 10.9256 
-3.46092 1.57319 -1.5163 
-2.02632 8.15949 3.40183 
-16.8627 4.64051 -34.8098 
-2.95272 -1.5069 -6.83852 
-2.26284 0.709054 -10.4852 
-3.62162 2.42147 -7.23984 
-10.5406 4.21744 -15.8756 
18.3188 12.8394 -28.4098 
-4.17997 -10.4593 -0.57366 
-0.953673 18.875 -6.55252 
-38.6821 -9.73786 -8.91096 
-13.4915 -0.253452 2.06733 
11.647 20.668 -28.1027 
-7.63022 -10.4728 -10.9191 
15.1839 0.740564 5.57592 
36.6834 -17.2014 -65.8105 
46.3634 10.4774 -0.964406 
4.58992 28.8429 4.89459 
51.9293 3.69743 3.58915 
-478.339 941.171 -1788.39 
7.45506 0.521083 12.586 
0.053566 -0.396596 4.77222 
72.1366 4.38358 301.325 
-95.4546 -18.134 -157.891 
-3.11747 -1.47061 7.57633 
-16.2787 21.541 -32.4188 
-3.71728 0.423959 4.36988 
-24.3215 -5.59972 5.93424 
0.205897 0.0618346 3.56328 
-3.63473 2.09798 2.45565 
-10.1852 -5.34731 -1.83528 
-288.919 568.319 -489.986 
-26.8496 9.64564 42.4014 
-34.2963 -20.0877 -6.52854 
13.5816 18.9066 -31.9023 
-6.41429 -4.42739 42.1565 
-3.36648 5.47935 2.68647 
-144.034 -59.0592 -186.403 
-14.37 -25.9612 25.1114 
-134.28 -7.85043 28.3799 
21.1774 75.6133 13.6925 
2.01617 6.06287 4.4835 
0.259907 69.4951 10.0746 
40.0433 76.422 22.5469 
0.00924291 0.218715 4.08901 
12.3868 16.6832 21.9053 
36.0973 59.8315 23.062 
25.0253 17.1548 21.8999 
7.72683 12.2758 8.6726 
9.35406 5.25846 -1.28223 
-2.46805 -34.1483 -50.2878 
-98.5492 122.289 3.59493 
156.526 360.366 -170.722 
-3.35826 -13.0526 -7.74457 
3.99014 -3.5164 10.0207 
-5.95969 -8.44593 7.504 
-6.09172 -4.99417 1.3196 
7.81228 9.91182 1.10711 
3.13659 -3.44871 -0.314155 
5.78996 -28.0617 5.12549 
-0.0108412 -2.71917 10.4857 
-0.267621 1.07348 3.61257 
0.159485 -19.4142 -5.43415 
14.0362 -32.5411 41.3517 
7.37618 -4.80513 10.6748 
0.00773556 -26.4508 76.6233 
44.0603 31.9656 229.51 
3.94902 7.57105 40.2133 
0.714007 1.65965 8.17453 
17.8465 1.31155 58.0603 
-7.01106e-10 2.06071e-09 13.6117 
5.38667 -7.51282 7.36234 
13.9823 -0.0669846 83.042 
86.525 -48.8489 -138.126 
-1.15858e-14 -5.38449e-15 13.6117 
-19.5592 -58.3297 650.647 
40.5541 16.1515 170.253 
-4.20322 -3.63185 65.5563 
-8.88925 3.34678 31.9727 
94.6466 -6.9405 -48.9749 
5.73268e-14 9.28447e-14 13.6117 
-16.7386 10.0815 44.2253 
-3.35759 3.59182 14.8763 
14.6691 -49.162 157.509 
-7.16521 -3.97115 46.4379 
-0.850506 2.76263 12.3945 
32.0333 30.3841 103.752 
-47.4355 -11.8429 145.649 
-101.915 81.8914 -126.605 
2.69666e-14 -5.06299e-15 13.6117 
5.20826 -25.5497 73.6853 
-23.1415 14.1498 32.2542 
3.63854 -16.9204 27.7072 
1.93918 -0.797992 17.4349 
427.305 936.993 -1344.5 
900.141 428.945 -734.958 
-4.04298 -2.57772 14.0372 
-7.30604 4.42822 23.2785 
-24.0449 9.7334 44.5287 
-11.7803 -1.05963 67.0514 
22.1084 -31.727 42.3946 
13.7438 288.173 543.869 
-11.6803 -6.0372 46.7696 
-177.308 262.874 509.536 
-0.0760705 -3.57504 12.3436 
-2.60062 6.6839 23.8692 
-1.76649e-10 6.62672e-13 13.6117 
-0.333313 1.96323 10.1482 
0.945959 16.0817 31.2661 
3.9019 -1.43215 21.8317 
-2.29502 4.11201 16.4394 
0.56382 -2.80821 32.356 
55.2403 -134.618 314.957 
4.29131 4.93327 7.55957 
54.9855 -110.091 378.625 
-43.322 26.6757 38.2832 
685.969 460.823 1310.37 
279.358 -88.6383 -1779.09 
VECTORS moment double
0 0 0 
0 0 0 
0 0 0 
0 0 0 
0 0 0 
0 0 0 
0 0 0 
0 0 0 
0 0 0 
0 0 0 
0 0 0 
0 0 0 
0 0 0 
0 0 0 
0 0 0 
0 0 0 
0 0 0 
0 0 0 
0 0 0 
0 0 0 
0 0 0 
0 0 0 
0 0 0 
0 0 0 
0 0 0 
0 0 0 
0 0 0 
0 0 0 
0 0 0 
0 0 0 
0 0 0 
0 0 0 
0 0 0 
0 0 0 
0 0 0 
0 0 0 
0 0 0 
0 0 0 
0 0 0 
0 0 0 
0 0 0 
0 0 0 
0 0 0 
0 0 0 
0 0 0 
0 0 0 
0 0 0 
0 0 0 
0 0 0 
0 0 0 
0 0 0 
0 0 0 
0 0 0 
0 0 0 
0 0 0 
0 0 0 
0 0 0 
0 0 0 
0 0 0 
0 0 0 
0 0 0 
0 0 0 
0 0 0 
0 0 0 
0 0 0 
0 0 0 
0 0 0 
0 0 0 
0 0 0 
0 0 0 
0 0 0 
0 0 0 
0 0 0 
0 0 0 
0 0 0 
0 0 0 
0 0 0 
0 0 0 
0 0 0 
0 0 0 
0 0 0 
0 0 0 
0 0 0 
0 0 0 
0 0 0 
0 0 0 
0 0 0 
0 0 0 
0 0 0 
0 0 0 
0 0 0 
0 0 0 
0 0 0 
0 0 0 
0 0 0 
0 0 0 
0 0 0 
0 0 0 
0 0 0 
0 0 0 
0 0 0 
0 0 0 
0 0 0 
0 0 0 
0 0 0 
0 0 0 
0 0 0 
0 0 0 
0 0 0 
0 0 0 
0 0 0 
0 0 0 
0 0 0 
0 0 0 
0 0 0 
0 0 0 
0 0 0 
0 0 0 
0 0 0 
0 0 0 
0 0 0 
0 0 0 
0 0 0 
0 0 0 
0 0 0 
0 0 0 
0 0 0 
0 0 0 
0 0 0 
0 0 0 
0 0 0 
0 0 0 
0 0 0 
0 0 0 
0 0 0 
0 0 0 
0 0 0 
0 0 0 
0 0 0 
0 0 0 
0 0 0 
0 0 0 
0 0 0 
0 0 0 
0 0 0 
0 0 0 
0 0 0 
0 0 0 
0 0 0 
0 0 0 
0 0 0 
0 0 0 
0 0 0 
0 0 0 
0 0 0 
0 0 0 
0 0 0 
0 0 0 
0 0 0 
0 0 0 
0 0 0 
0 0 0 
0 0 0 
0 0 0 
0 0 0 
0 0 0 
0 0 0 
0 0 0 
0 0 0 
0 0 0 
0 0 0 
0 0 0 
0 0 0 
0 0 0 
0 0 0 
0 0 0 
0 0 0 
0 0 0 
0 0 0 
0 0 0 
0 0 0 
0 0 0 
0 0 0 
0 0 0 
0 0 0 
0 0 0 
0 0 0 
0 0 0 
0 0 0 
0 0 0 
0 0 0 
0 0 0 
0 0 0 
0 0 0 
0 0 0 
0 0 0 
0 0 0 
0 0 0 
0 0 0 
0 0 0 
0 0 0 
0 0 0 
0 0 0 
0 0 0 
0 0 0 
0 0 0 
0 0 0 
0 0 0 
0 0 0 
0 0 0 
0 0 0 
0 0 0 
0 0 0 
0 0 0 
0 0 0 
0 0 0 
0 0 0 
0 0 0 
0 0 0 
0 0 0 
0 0 0 
0 0 0 
0 0 0 
0 0 0 
0 0 0 
0 0 0 
0 0 0 
0 0 0 
0 0 0 
0 0 0 
0 0 0 
0 0 0 
0 0 0 
0 0 0 
0 0 0 
0 0 0 
0 0 0 
0 0 0 
0 0 0 
0 0 0 
0 0 0 
0 0 0 
0 0 0 
0 0 0 
0 0 0 
0 0 0 
0 0 0 
0 0 0 
0 0 0 
0 0 0 
0 0 0 
0 0 0 
0 0 0 
0 0 0 
0 0 0 
0 0 0 
0 0 0 
0 0 0 
0 0 0 
0 0 0 
0 0 0 
0 0 0 
0 0 0 
0 0 0 
0 0 0 
0 0 0 
0 0 0 
0 0 0 
0 0 0 
0 0 0 
0 0 0 
0 0 0 
0 0 0 
0 0 0 
0 0 0 
0 0 0 
0 0 0 
0 0 0 
0 0 0 
0 0 0 
0 0 0 
0 0 0 
0 0 0 
0 0 0 
0 0 0 
0 0 0 
0 0 0 
0 0 0 
0 0 0 
0 0 0 
0 0 0 
0 0 0 
0 0 0 
0 0 0 
0 0 0 
0 0 0 
0 0 0 
0 0 0 
0 0 0 
0 0 0 
0 0 0 
0 0 0 
0 0 0 
0 0 0 
0 0 0 
0 0 0 
0 0 0 
0 0 0 
0 0 0 
0 0 0 
0 0 0 
0 0 0 
0 0 0 
0 0 0 
0 0 0 
0 0 0 
0 0 0 
0 0 0 
0 0 0 
0 0 0 
0 0 0 
0 0 0 
0 0 0 
0 0 0 
0 0 0 
0 0 0 
0 0 0 
0 0 0 
0 0 0 
0 0 0 
0 0 0 
0 0 0 
0 0 0 
0 0 0 
0 0 0 
0 0 0 
0 0 0 
0 0 0 
0 0 0 
0 0 0 
0 0 0 
0 0 0 
0 0 0 
0 0 0 
0 0 0 
0 0 0 
0 0 0 
0 0 0 
0 0 0 
0 0 0 
0 0 0 
0 0 0 
0 0 0 
0 0 0 
0 0 0 
0 0 0 
0 0 0 
0 0 0 
0 0 0 
0 0 0 
0 0 0 
0 0 0 
0 0 0 
0 0 0 
0 0 0 
0 0 0 
0 0 0 
0 0 0 
0 0 0 
0 0 0 
0 0 0 
0 0 0 
0 0 0 
0 0 0 
0 0 0 
0 0 0 
0 0 0 
0 0 0 
0 0 0 
0 0 0 
0 0 0 
0 0 0 
0 0 0 
0 0 0 
0 0 0 
0 0 0 
0 0 0 
0 0 0 
0 0 0 
0 0 0 
0 0 0 
0 0 0 
0 0 0 
0 0 0 
0 0 0 
0 0 0 
0 0 0 
0 0 0 
0 0 0 
0 0 0 
0 0 0 
0 0 0 
0 0 0 
0 0 0 
0 0 0 
0 0 0 
0 0 0 
0 0 0 
0 0 0 
0 0 0 
0 0 0 
0 0 0 
0 0 0 
0 0 0 
0 0 0 
0 0 0 
0 0 0 
0 0 0 
0 0 0 
0 0 0 
0 0 0 
0 0 0 
0 0 0 
0 0 0 
0 0 0 
0 0 0 
0 0 0 
0 0 0 
0 0 0 
0 0 0 
0 0 0 
0 0 0 
0 0 0 
0 0 0 
0 0 0 
0 0 0 
0 0 0 
0 0 0 
0 0 0 
0 0 0 
0 0 0 
0 0 0 
0 0 0 
0 0 0 
0 0 0 
0 0 0 
0 0 0 
0 0 0 
0 0 0 
0 0 0 
0 0 0 
0 0 0 
0 0 0 
0 0 0 
0 0 0 
0 0 0 
0 0 0 
0 0 0 
0 0 0 
0 0 0 
0 0 0 
0 0 0 
0 0 0 
0 0 0 
0 0 0 
0 0 0 
0 0 0 
0 0 0 
0 0 0 
0 0 0 
0 0 0 
0 0 0 
0 0 0 
0 0 0 
0 0 0 
SCALARS num_collisions int 1
LOOKUP_TABLE default
1 
1 
1 
1 
1 
1 
1 
1 
1 
1 
1 
1 
1 
1 
1 
1 
1 
1 
1 
1 
1 
1 
1 
1 
1 
1 
1 
1 
1 
1 
1 
1 
1 
1 
1 
1 
1 
1 
1 
1 
1 
1 
1 
1 
1 
1 
1 
1 
1 
1 
1 
1 
1 
1 
1 
1 
1 
1 
1 
1 
1 
1 
1 
1 
1 
1 
1 
1 
1 
1 
1 
1 
1 
1 
1 
1 
1 
1 
1 
1 
1 
1 
1 
1 
1 
1 
1 
1 
1 
1 
1 
1 
1 
1 
1 
1 
1 
1 
1 
1 
1 
1 
1 
1 
1 
1 
1 
1 
1 
1 
1 
1 
1 
1 
1 
1 
1 
1 
1 
1 
1 
1 
1 
1 
1 
1 
1 
1 
1 
1 
1 
1 
1 
1 
1 
1 
1 
1 
1 
1 
1 
1 
1 
1 
1 
1 
1 
1 
1 
1 
1 
1 
1 
1 
1 
1 
1 
1 
1 
1 
1 
1 
1 
1 
1 
1 
1 
1 
1 
1 
1 
1 
1 
1 
1 
1 
1 
1 
1 
1 
1 
1 
1 
1 
1 