# vtk DataFile Version 2.0
Generated by NetDEM
ASCII 
DATASET POLYDATA
POINTS 952 double
-0.418635 -0.408001 -0.463856 
-0.429624 -0.409458 -0.393497 
-0.448969 -0.195167 -0.45002 
-0.45 -0.269819 -0.383501 
-0.448969 -0.195167 -0.45002 
-0.422898 -0.114536 -0.404547 
-0.410993 -0.00673549 -0.464409 
-0.409021 -0.0182824 -0.385694 
-0.450024 0.110437 -0.450021 
-0.37046 0.0675947 -0.407286 
-0.450024 0.110437 -0.450021 
-0.44944 0.174045 -0.372875 
-0.438227 0.345906 -0.450043 
-0.355088 0.378333 -0.406773 
-0.438227 0.345906 -0.450043 
-0.450013 0.27364 -0.381988 
-0.271026 -0.429684 -0.459145 
-0.33481 -0.407476 -0.405354 
-0.271026 -0.429684 -0.459145 
-0.264594 -0.438704 -0.363329 
-0.306897 -0.213672 -0.450062 
-0.320757 -0.205884 -0.351434 
-0.306897 -0.213672 -0.450062 
-0.269829 -0.305304 -0.447108 
-0.194543 -0.00964195 -0.450058 
-0.128995 -0.055683 -0.390249 
-0.194543 -0.00964195 -0.450058 
-0.240928 -0.00452914 -0.352186 
-0.172912 0.1729 -0.463908 
-0.176871 0.0788586 -0.450348 
-0.172912 0.1729 -0.463908 
-0.135657 0.146777 -0.396429 
-0.172912 0.1729 -0.463908 
-0.247017 0.18776 -0.387268 
-0.253771 0.366102 -0.463141 
-0.230297 0.328119 -0.394818 
-0.0560964 -0.396642 -0.460799 
-0.0860114 -0.389531 -0.395994 
-0.144547 -0.134341 -0.450008 
-0.0836868 -0.213684 -0.450012 
-0.055383 -0.0873229 -0.450027 
0.0513739 -0.0941199 -0.450085 
-0.055383 -0.0873229 -0.450027 
-0.128995 -0.055683 -0.390249 
0.0367237 0.179254 -0.452423 
0.0269035 0.259597 -0.45003 
0.0367237 0.179254 -0.452423 
0.112499 0.138699 -0.397861 
-0.0300697 0.319511 -0.441536 
-0.112561 0.313045 -0.401005 
-0.0300697 0.319511 -0.441536 
0.0269035 0.259597 -0.45003 
0.193017 -0.401631 -0.462882 
0.156475 -0.319052 -0.400871 
0.193017 -0.401631 -0.462882 
0.203529 -0.413697 -0.39021 
0.168375 -0.210381 -0.463009 
0.165411 -0.206317 -0.389587 
0.173212 -0.00690507 -0.462512 
0.175009 0.0145752 -0.385488 
0.16084 0.208759 -0.465053 
0.119946 0.301493 -0.426787 
0.299396 0.402823 -0.417131 
0.33072 0.307992 -0.412619 
0.299396 0.402823 -0.417131 
0.2846 0.372352 -0.323103 
0.450042 -0.408167 -0.450074 
0.436435 -0.356487 -0.365591 
0.450042 -0.408167 -0.450074 
0.390828 -0.450035 -0.381259 
0.430946 -0.303182 -0.450017 
0.436435 -0.356487 -0.365591 
0.38036 0.0897283 -0.450019 
0.450029 0.140164 -0.399033 
0.38036 0.0897283 -0.450019 
0.322995 0.0628415 -0.372659 
0.371641 0.439183 -0.465112 
0.397362 0.450511 -0.370735 
-0.429624 -0.409458 -0.393497 
-0.434881 -0.44074 -0.326113 
-0.429624 -0.409458 -0.393497 
-0.415595 -0.335184 -0.316098 
-0.45 -0.269819 -0.383501 
-0.415595 -0.335184 -0.316098 
-0.409021 -0.0182824 -0.385694 
-0.314493 -0.0229331 -0.362859 
-0.409021 -0.0182824 -0.385694 
-0.450991 -0.031029 -0.316668 
-0.449408 0.449818 -0.450037 
-0.449969 0.428173 -0.352435 
-0.33481 -0.407476 -0.405354 
-0.298496 -0.317833 -0.347835 
-0.15463 -0.0988186 -0.203426 
-0.166354 -0.0714976 -0.298875 
-0.15463 -0.0988186 -0.203426 
-0.236797 -0.060445 -0.161294 
-0.15463 -0.0988186 -0.203426 
-0.114281 -0.0287861 -0.144553 
-0.147053 0.403614 -0.448098 
-0.143024 0.441529 -0.339914 
-0.0860114 -0.389531 -0.395994 
-0.00194402 -0.339344 -0.34928 
-0.0860114 -0.389531 -0.395994 
-0.160803 -0.376385 -0.334396 
0.313916 -0.238668 -0.11408 
0.294403 -0.16124 -0.178348 
0.313916 -0.238668 -0.11408 
0.355317 -0.211276 -0.0272874 
-0.0322783 -0.0135894 -0.30328 
-0.00740414 -0.0225754 -0.393794 
-0.0322783 -0.0135894 -0.30328 
0.00481395 -0.00382465 -0.210934 
0.119946 0.301493 -0.426787 
0.0669035 0.397356 -0.409047 
0.203529 -0.413697 -0.39021 
0.201556 -0.435474 -0.319153 
0.165411 -0.206317 -0.389587 
0.216862 -0.197502 -0.30775 
0.175009 0.0145752 -0.385488 
0.162107 0.0577064 -0.329592 
0.196803 0.112751 -0.455796 
0.273555 0.065793 -0.44352 
0.196803 0.112751 -0.455796 
0.112499 0.138699 -0.397861 
0.2846 0.372352 -0.323103 
0.197282 0.307361 -0.337321 
0.390828 -0.450035 -0.381259 
0.339673 -0.410196 -0.305167 
0.436435 -0.356487 -0.365591 
0.352506 -0.314439 -0.331144 
0.450029 0.140164 -0.399033 
0.450016 0.23399 -0.36453 
0.424845 0.340246 -0.456374 
0.437706 0.255884 -0.459892 
0.424845 0.340246 -0.456374 
0.433104 0.36902 -0.376212 
-0.434881 -0.44074 -0.326113 
-0.434049 -0.452846 -0.243831 
-0.320757 -0.205884 -0.351434 
-0.319662 -0.139841 -0.27643 
-0.290683 0.2678 -0.450016 
-0.333917 0.233961 -0.366449 
-0.450013 0.27364 -0.381988 
-0.419597 0.260032 -0.287739 
-0.181262 -0.37486 -0.451371 
-0.158782 -0.448147 -0.391852 
0.195247 -0.330347 -0.253713 
0.251781 -0.297466 -0.311969 
-0.176871 0.0788586 -0.450348 
-0.273637 0.0926006 -0.404152 
-0.348142 0.33182 -0.334711 
-0.355088 0.378333 -0.406773 
-0.348142 0.33182 -0.334711 
-0.281581 0.313878 -0.277532 
0.0431005 -0.439327 -0.449598 
0.0942398 -0.452584 -0.355674 
0.0431005 -0.439327 -0.449598 
0.00808263 -0.435388 -0.355189 
0.207869 -0.283284 -0.123715 
0.298277 -0.322281 -0.159575 
0.207869 -0.283284 -0.123715 
0.196855 -0.24484 -0.0340155 
0.207869 -0.283284 -0.123715 
0.122447 -0.233555 -0.138845 
0.207869 -0.283284 -0.123715 
0.135206 -0.333562 -0.069381 
0.208012 0.065513 -0.195734 
0.20366 0.139059 -0.258985 
0.208012 0.065513 -0.195734 
0.18186 0.0413709 -0.11109 
-0.0377884 0.222363 -0.387542 
0.00785177 0.294194 -0.34085 
0.25519 0.331308 -0.463903 
0.33072 0.307992 -0.412619 
0.201556 -0.435474 -0.319153 
0.0942398 -0.452584 -0.355674 
0.201556 -0.435474 -0.319153 
0.262745 -0.446974 -0.241344 
0.0513739 -0.0941199 -0.450085 
0.134908 -0.0967528 -0.397488 
0.0513739 -0.0941199 -0.450085 
0.0239526 -0.118934 -0.34788 
0.162107 0.0577064 -0.329592 
0.124994 0.0640748 -0.266449 
0.273555 0.065793 -0.44352 
0.322995 0.0628415 -0.372659 
0.112499 0.138699 -0.397861 
0.0493355 0.119877 -0.327245 
0.378657 -0.217766 -0.450079 
0.336117 -0.176636 -0.369538 
0.378657 -0.217766 -0.450079 
0.450001 -0.209059 -0.38056 
0.380958 -0.108504 -0.450054 
0.449936 -0.106889 -0.377708 
0.380958 -0.108504 -0.450054 
0.346403 -0.0752228 -0.362327 
0.450016 0.23399 -0.36453 
0.399868 0.3003 -0.308946 
0.450016 0.23399 -0.36453 
0.437706 0.255884 -0.459892 
-0.434049 -0.452846 -0.243831 
-0.389205 -0.439687 -0.168793 
-0.240928 -0.00452914 -0.352186 
-0.294451 -0.040459 -0.271337 
-0.240928 -0.00452914 -0.352186 
-0.192712 0.0772014 -0.340112 
-0.359493 0.140924 -0.340228 
-0.37046 0.0675947 -0.407286 
-0.359493 0.140924 -0.340228 
-0.347931 0.196893 -0.258201 
-0.359493 0.140924 -0.340228 
-0.333917 0.233961 -0.366449 
-0.158782 -0.448147 -0.391852 
-0.264594 -0.438704 -0.363329 
-0.128995 -0.055683 -0.390249 
-0.166354 -0.0714976 -0.298875 
-0.241433 0.0481956 -0.21979 
-0.246002 0.0366381 -0.120596 
-0.241433 0.0481956 -0.21979 
-0.283984 0.0884839 -0.300804 
-0.0552285 0.126884 -0.443076 
0.0196267 0.0475014 -0.450095 
0.0942398 -0.452584 -0.355674 
0.0798748 -0.415697 -0.271379 
0.449993 -0.332317 -0.0682077 
0.44818 -0.26981 0.00982278 
0.449993 -0.332317 -0.0682077 
0.450012 -0.4156 -0.123543 
0.0196267 0.0475014 -0.450095 
0.0321688 0.0439535 -0.354899 
0.0669035 0.397356 -0.409047 
-0.00611867 0.412915 -0.369101 
0.262745 -0.446974 -0.241344 
0.303073 -0.387831 -0.209269 
0.156475 -0.319052 -0.400871 
0.0999301 -0.287535 -0.303876 
0.156475 -0.319052 -0.400871 
0.0825506 -0.342222 -0.440691 
0.124994 0.0640748 -0.266449 
0.11065 -0.0229743 -0.207658 
0.262447 0.175546 -0.444082 
0.334104 0.208959 -0.399239 
0.262447 0.175546 -0.444082 
0.240163 0.235384 -0.379078 
0.145293 0.450006 -0.450015 
0.142088 0.449529 -0.35007 
0.352506 -0.314439 -0.331144 
0.251781 -0.297466 -0.311969 
0.449936 -0.106889 -0.377708 
0.449998 -0.146799 -0.28604 
0.449936 -0.106889 -0.377708 
0.437572 -0.0366318 -0.307652 
0.386468 0.165393 -0.32606 
0.334104 0.208959 -0.399239 
0.386468 0.165393 -0.32606 
0.371944 0.166599 -0.227151 
0.33072 0.307992 -0.412619 
0.334104 0.208959 -0.399239 
0.433104 0.36902 -0.376212 
0.399868 0.3003 -0.308946 
0.433104 0.36902 -0.376212 
0.397362 0.450511 -0.370735 
0.433104 0.36902 -0.376212 
0.43949 0.401281 -0.296388 
-0.389205 -0.439687 -0.168793 
-0.3689 -0.362866 -0.116189 
-0.3689 -0.362866 -0.116189 
-0.32904 -0.442194 -0.0455555 
-0.3689 -0.362866 -0.116189 
-0.386071 -0.269277 -0.146935 
-0.294451 -0.040459 -0.271337 
-0.353788 0.0114365 -0.233671 
-0.449969 0.428173 -0.352435 
-0.382381 0.45 -0.282064 
-0.449969 0.428173 -0.352435 
-0.449483 0.373819 -0.268511 
-0.246002 0.0366381 -0.120596 
-0.233542 0.0104626 -0.0249205 
0.355317 -0.211276 -0.0272874 
0.326388 -0.26999 0.0482922 
0.355317 -0.211276 -0.0272874 
0.44881 -0.198013 -0.0601696 
0.0239526 -0.118934 -0.34788 
0.0143322 -0.100823 -0.250026 
0.0321688 0.0439535 -0.354899 
0.0493355 0.119877 -0.327245 
-0.00258637 0.437345 -0.464599 
-0.00611867 0.412915 -0.369101 
0.303073 -0.387831 -0.209269 
0.298277 -0.322281 -0.159575 
0.303073 -0.387831 -0.209269 
0.339673 -0.410196 -0.305167 
0.0421719 0.0707941 -0.255177 
0.0493355 0.119877 -0.327245 
0.0421719 0.0707941 -0.255177 
0.000882842 0.112659 -0.187281 
0.240163 0.235384 -0.379078 
0.229118 0.1837 -0.320191 
0.349308 0.450008 -0.265012 
0.43949 0.401281 -0.296388 
-0.461869 -0.452441 -0.122718 
-0.443067 -0.45683 -0.00344333 
-0.319662 -0.139841 -0.27643 
-0.338698 -0.220182 -0.220045 
-0.450991 -0.031029 -0.316668 
-0.447873 -0.0977083 -0.257893 
-0.310547 0.44585 -0.351464 
-0.233267 0.4489 -0.288087 
-0.310547 0.44585 -0.351464 
-0.221431 0.448786 -0.414465 
-0.310547 0.44585 -0.351464 
-0.382381 0.45 -0.282064 
-0.160803 -0.376385 -0.334396 
-0.22223 -0.350269 -0.23571 
-0.160803 -0.376385 -0.334396 
-0.139109 -0.415782 -0.244595 
-0.160803 -0.376385 -0.334396 
-0.139644 -0.296665 -0.319556 
-0.190868 -0.158027 -0.131439 
-0.149523 -0.245223 -0.105232 
-0.135657 0.146777 -0.396429 
-0.192712 0.0772014 -0.340112 
-0.230297 0.328119 -0.394818 
-0.168139 0.352807 -0.325045 
0.449977 0.0523813 -0.158125 
0.450015 0.0837513 -0.253072 
0.238066 -0.142212 -0.389359 
0.336117 -0.176636 -0.369538 
0.238066 -0.142212 -0.389359 
[...]
POINT_DATA 952
SCALARS id int 1
LOOKUP_TABLE default
0
25
1
26
1
152
2
27
3
103
3
28
4
84
4
54
5
30
5
105
6
51
6
180
7
81
7
77
8
58
8
133
8
128
9
134
10
35
11
131
12
66
12
81
13
38
13
69
14
139
14
38
15
91
15
40
16
41
17
42
18
39
19
98
19
44
20
46
20
45
21
46
23
48
23
172
24
124
25
50
25
226
26
226
27
52
27
127
29
104
30
250
32
162
32
57
32
237
34
184
35
160
35
130
36
192
36
111
37
108
37
312
39
89
40
65
41
216
42
67
43
68
43
69
44
143
45
120
46
95
48
73
49
74
49
99
50
75
51
126
53
154
54
179
55
80
56
241
58
78
59
84
59
283
60
85
60
185
61
240
61
465
61
161
61
340
62
193
62
417
63
164
64
98
65
85
65
90
66
166
66
112
67
92
68
172
69
138
71
146
71
121
72
96
72
171
73
173
73
74
75
100
77
102
77
203
79
103
79
279
79
154
80
105
81
162
82
107
82
307
83
88
85
165
86
371
86
345
88
113
89
189
90
115
91
256
91
110
92
142
93
123
93
118
94
169
95
241
96
196
96
222
97
123
97
348
98
123
99
173
99
124
99
149
100
101
101
175
101
326
102
177
104
204
104
329
107
407
111
346
111
246
112
186
113
138
114
189
115
240
115
120
117
138
117
238
118
168
119
149
125
150
126
401
127
176
129
282
129
159
129
204
130
205
130
230
130
155
132
361
133
203
134
209
137
272
141
146
141
166
142
292
144
169
148
222
149
174
150
350
153
253
156
315
156
190
158
188
160
206
160
210
161
341
161
360
164
188
165
190
166
191
168
223
168
218
170
271
170
221
171
297
172
197
173
198
174
224
175
300
176
277
177
301
179
279
179
201
182
333
182
334
182
358
184
259
186
331
186
336
186
411
188
288
188
212
189
263
189
239
192
217
193
268
194
344
194
319
195
220
196
271
197
297
197
272
201
354
202
279
202
433
202
253
203
208
204
254
205
225
205
255
206
207
206
251
208
233
209
234
210
235
212
287
212
238
215
290
216
341
217
242
217
396
219
243
220
245
221
296
222
347
224
249
225
300
227
228
227
328
229
304
229
454
230
280
231
287
231
383
231
462
232
356
232
406
233
253
234
308
235
260
236
427
236
406
236
386
238
337
239
264
242
370
243
394
243
294
244
299
244
319
245
265
245
345
246
296
247
343
248
373
248
348
252
377
254
304
257
258
257
352
259
284
260
285
261
445
262
289
262
344
263
264
266
347
268
368
268
293
273
348
274
324
275
300
275
400
276
280
276
361
277
375
278
301
278
327
280
305
284
309
285
340
285
310
286
439
287
338
288
313
289
314
290
435
291
317
292
417
292
317
293
343
298
398
300
381
305
306
306
406
309
404
310
335
311
351
313
338
314
339
315
435
316
422
316
472
316
321
320
445
321
497
324
449
326
401
327
353
327
354
327
352
330
335
330
430
331
405
334
364
336
341
337
388
338
363
338
463
338
413
346
395
350
426
352
408
353
452
354
453
356
357
358
409
360
461
360
436
363
463
363
393
367
392
368
393
369
463
373
422
373
397
380
381
386
461
389
469
392
417
393
418
395
415
395
440
396
465
397
398
397
423
399
474
406
480
407
427
408
433
408
484
409
434
412
482
414
463
416
446
416
466
420
471
423
448
432
487
434
479
435
490
441
467
444
494
444
469
445
470
451
452
454
479
459
479
462
482
470
495
491
495
354
0
50
0
127
0
26
0
351
0
125
0
3
0
278
0
54
0
345
1
73
1
174
1
20
1
316
1
121
1
272
1
296
1
261
1
195
1
48
1
149
1
122
1
248
1
298
1
245
2
75
2
80
2
415
2
90
2
45
2
156
2
320
2
419
3
119
3
344
3
94
3
274
3
239
3
194
3
304
3
286
3
53
4
17
4
122
4
49
4
47
4
180
4
83
4
0
4
74
4
88
4
71
4
10
4
64
4
114
4
55
4
16
4
24
4
2
4
20
4
72
4
109
4
12
4
8
4
5
4
15
4
38
4
66
4
18
4
70
4
9
4
3
4
187
4
21
4
68
4
131
4
11
4
4
4
14
4
6
4
147
4
13
4
43
4
135
4
34
4
23
4
33
4
110
4
7
4
22
4
29
4
1
4
94
4
87
4
CELL_DATA 476
VECTORS force double
-27.8403 -5.38241 180.07 
11.6156 3.66816 -10.3839 
2.91322 -0.353553 -7.94748 
-20.2343 43.0545 179.813 
286.288 149.994 292.64 
244.6 87.5024 255.981 
-0.596021 12.8878 27.2279 
2.84404 19.5136 92.3054 
77.8554 42.2107 79.3467 
241.943 146.22 127.989 
-206.812 735.182 641.997 
43.8626 164.437 1282.87 
-201.667 393.223 908.965 
68.6804 789.418 1005.11 
3.97725 24.0836 -880.681 
-123.602 -225.693 -590.15 
-51.5397 -293.942 -464.727 
199.385 70.4603 221.74 
236.41 17.1207 -156.229 
-2.08345 2.72168 4.28866 
-165.145 75.3522 195.841 
-292.825 207.854 38.7614 
262.688 -413.185 143.588 
-123.981 -248.763 650.995 
45.2575 -47.6137 -40.7988 
77.4754 -124.286 -142.138 
1.36301 0.49815 -4.46919 
-0.479713 4.39927 -18.3622 
-8.31811 0.647628 -51.7217 
15.7568 -8.5012 -52.5807 
13.3275 -24.1461 -15.6896 
92.3176 -451.652 -995.647 
278.165 -713.298 -585.859 
1205.04 1726.26 -654.758 
1059.27 1685.02 43.705 
561.709 1152.89 181.167 
-233.688 -138.537 96.9078 
-296.394 -54.7238 -231.306 
-2.39247 -10.8966 -0.715898 
397.475 39.0258 -518.772 
255.939 -49.1748 -265.216 
104.983 4.77508 -71.025 
17.3545 5.16016 -156.725 
98.6361 6.0787 -160.915 
-142.468 -9.78292 -303.054 
6.48851 -18.3253 -26.3405 
144.157 -81.7151 -317.728 
17.7873 49.4624 -282.427 
-35.9681 52.5987 -245.026 
-58.5135 -137.136 564.012 
290.352 -190.759 -745.933 
546.248 366.764 786.258 
-23.9366 -1.60928 -10.9062 
-105.912 18.017 -133.222 
-23.2934 -22.0646 5.92379 
-0.30226 0.97233 -7.65092 
-28.5452 -0.6096 -3.03526 
-19.0548 -11.5214 -145.31 
-13.5891 5.64312 -19.6766 
13.4895 -9.58229 -36.8063 
149.22 -62.5221 675.463 
-300.935 -133.486 466.541 
-21.8937 303.882 48.2677 
-22.1988 -7.1084 -48.8438 
-238.566 -353.335 45.6707 
16.1847 690.505 -701.82 
40.8797 0.317947 1013.55 
37.5593 187.713 428.321 
39.0355 -117.59 197.98 
184.131 139.991 -1024.65 
4.71952 0.906083 -13.3428 
-205.992 208.342 -263.576 
-325.234 -268.885 -536.343 
-1.79532 -1.48394 5.10809 
21.1489 -56.2342 424.614 
12.5899 -1.58321 11.9477 
0.106866 0.49048 -2.77049 
954.306 317.91 -457.015 
859.87 234.648 113.143 
-11.8683 -0.4523 8.44991 
-3.76631 -40.4612 -2.12069 
2.12785 -32.6596 14.7759 
18.4379 -16.4617 -16.1181 
2.33357 28.5567 46.9717 
9.12416 25.1473 -43.9218 
1.11966 -6.95108 -6.74866 
96.7799 -492.34 -713.646 
166.684 83.0862 218.982 
113.421 -83.1835 58.4137 
-66.7355 57.3151 71.073 
-2.45765 -22.8413 -98.8753 
7.84228 -1.85963 -23.6244 
-395.772 16.8971 -233.046 
147.365 312.084 -751.216 
-223.792 47.0649 -105.741 
-200.771 78.966 50.4393 
105.343 -23.6859 -369.364 
143.943 -8.96836 -139.285 
64.3021 -150.151 -145.9 
253.29 -1078.83 513.574 
2.42869 -48.9528 -276.411 
548.131 308.821 -362.906 
-162.38 -393.552 -1165.48 
292.436 103.103 280.642 
-108.897 140.287 77.156 
-8.33252 39.7994 87.2056 
299.432 500.946 386.301 
-159.375 125.069 -556.339 
-3.34389 6.40189 -60.3693 
14.6892 -19.876 45.5843 
-41.12 -73.0413 -113.997 
5.89622 -160.421 87.4106 
17.3038 -48.4592 -30.2375 
-282.565 -159.507 -92.2796 
191.108 249.851 355.387 
120.324 -74.56 88.9529 
-26.0185 31.9056 -7.05444 
0.542604 -3.3289 -10.559 
5.18236 1.99535 12.4811 
-1.10726 5.14831 -20.1064 
-695.748 90.6883 -9.98167 
-1271.41 -412.782 -2140.98 
-0.399206 2.28998 -7.97498 
38.514 -19.2547 -26.6638 
-179.035 -155.901 364.862 
-57.584 -81.0201 280.662 
-145.497 45.0541 163.564 
263.23 -41.0924 249.183 
-207.429 275.643 -20.9623 
7.24007 -119.34 -264.719 
-0.484895 -107.857 -62.535 
-6.74968 -205.292 -476.353 
10.331 -48.9431 142.769 
-39.0945 -33.4862 -118.948 
57.8852 110.584 -108.617 
-150.956 -83.402 175.922 
-815.424 -131.503 569.507 
-475.243 -102.214 162.363 
-13.537 27.5665 -45.6874 
-120.267 -7.78208 94.9998 
-55.9697 -64.0082 494.183 
1.70225 -0.946035 -36.8894 
-143.787 -59.3471 -843.234 
129.621 -32.3448 29.0793 
13.8845 -26.2755 -32.3982 
-10.3791 -9.21111 27.6631 
83.991 -103.135 -826.394 
44.2372 103.312 -582.305 
310.881 153.148 1036.45 
26.2135 -75.2169 -62.2146 
-30.1145 13.7472 -61.9081 
-112.418 130.5 643.347 
-22.1274 4.03184 48.384 
-1169.85 49.0881 662.25 
-140.268 0.725941 837.038 
-1199 -135.85 -62.6017 
324.447 -25.7673 -416.991 
-199.495 -225.142 -994.105 
15.0703 -211.282 -339.435 
-1.0772 2.20385 -3.45534 
17.9609 -248.678 105.044 
-89.4747 178.106 -559.829 
-82.8719 -17.7382 -21.0882 
-211.132 169.368 194.101 
-8.84821 -59.167 -141.835 
14.6059 16.6638 -25.0453 
0.190949 -0.560974 0.449409 
7.88296 -37.8908 5.77784 
-145.969 84.0969 248.724 
3.48919 -67.7711 -67.3402 
-59.2291 -18.9045 111.389 
-13.4852 -5.48609 -41.5417 
12.5123 -3.49489 35.7203 
-11.1529 28.8233 -32.4315 
92.9432 241.836 166.326 
-74.6454 184.943 497.497 
-18.1274 -14.2952 31.1981 
14.209 -5.4888 -14.0399 
5.47501 3.51326 -6.79174 
-1.51631 -17.9998 -132.14 
-56.878 -10.198 -53.8851 
-267.895 62.0292 -448.56 
-57.9772 -10.7923 -471.788 
-615.353 640.653 -685.667 
-448.82 1077.81 327.53 
-23.9775 -12.8065 4.68075 
42.0858 -28.3966 205.244 
13.8341 25.8855 -7.26737 
33.3757 82.8346 -208.947 
5.05314 5.86843 49.7215 
-0.705233 17.867 -18.9922 
149.573 -112.674 -84.24 
60.8394 126.898 388.164 
-26.2394 110.632 180.992 
-10.0482 0.496436 27.0448 
-4.77195 -2.74947 -9.05889 
10.7058 1.34053 -24.5905 
-1160.23 162.621 -287.797 
4.43477 2.49203 -9.90936 
-3.0686 1.77422 -10.083 
1.25875 0.0332763 -11.0549 
18.4568 -29.6506 -12.6415 
28.8143 -32.7696 -3.3026 
-5.38007 -6.46984 17.4151 
68.5431 -42.1664 -70.3799 
-2.98387 3.35359 -8.7586 
45.7585 -164.218 -34.0893 
893.375 453.052 -56.5601 
809.084 406.475 -516.287 
-74.0703 -18.1557 49.1274 
-297.878 347.123 -693.464 
-39.9923 9.52342 -82.1909 
-107.072 -7.38716 -131.173 
-5.17095 51.8814 -50.1945 
379.727 -142.518 233.512 
-53.0617 -53.7051 14.1984 
302.134 -203.921 341.457 
90.3663 603.192 248.293 
-16.18 -70.0162 -508.462 
-52.2078 45.1252 53.4849 
-69.671 15.3999 83.6537 
-0.526411 -71.2526 -69.1665 
20.0052 -36.2116 -26.5 
-288.094 44.0199 -261.235 
114.608 89.3883 118.176 
9.82006 37.8274 -131.574 
-1.51744 -32.8099 -102.762 
-49.9644 -14.6046 -118.651 
-2.91539 -0.622828 -16.8008 
39.4684 13.6563 -73.6549 
0.386046 4.83377 5.30045 
4.09799 5.23429 -6.5961 
-1.34681 -3.37584 -2.10695 
-167.712 662.539 -356.892 
-519.375 -97.7118 -1269.91 
14.8892 -73.3914 -104.204 
-18.311 3.14943 70.3197 
22.5057 -11.8626 -69.9024 
0.435718 -0.00779506 0.232115 
0.0183577 0.0589373 0.448473 
-16.3537 -1.92347 70.005 
-2.8657 4.20965 -28.7642 
9.62464 98.6352 343.75 
-30.4734 -42.266 -18.994 
0.364892 -7.28129 -8.61775 
5.21665 21.849 -16.2863 
15.9658 -18.9487 33.2947 
1.55965 10.7098 -15.2634 
358.478 -232.975 80.2136 
80.1113 10.1586 -88.6255 
-17.3753 6.09451 -23.3461 
15.1449 -45.7387 4.23072 
-8.32472 37.3984 -5.23315 
-11.2223 -16.4765 12.9299 
-99.4227 84.8882 349.356 
-6.37252 4.61226 3.98333 
2.18724 -2.3627 4.21507 
0.269532 -4.60575 -9.62325 
-1.35849 -0.606827 0.608736 
79.4788 113.677 -354.477 
-53.0474 92.1262 -578.533 
39.2584 -730.235 145.29 
-39.7174 -1004.56 100.973 
323.641 -425.947 -886.088 
10.6591 -21.8617 29.9403 
196.974 82.2766 468.06 
134.092 -16.0628 515.987 
-3.42615 -1.04044 0.280301 
-47.8876 -5.62297 70.8921 
-24.3905 -13.1667 6.80915 
9.64859 34.8855 -105.823 
-68.0866 -44.0494 -210.27 
-7.97855 2.76721 -25.1549 
9.75465 5.56582 -1.61747 
139.849 11.3802 -56.9547 
237.201 122.073 -152.374 
10.7608 1.91677 -9.97134 
2.79941 -9.05784 -4.29896 
8.99744 24.8748 21.1318 
9.3294 53.8399 -42.9316 
79.4261 68.5905 141.975 
-1.22643 6.03456 -5.26025 
-7.84911 18.1831 36.9597 
6.22404 0.0618152 -11.5248 
22.0113 16.2413 222.976 
2.3404 -2.40322 -14.8022 
0.0140961 0.605638 -1.41482 
107.203 4.42063 -20.801 
30.8831 -33.7566 -60.0129 
14.1564 100.754 -112.677 
-0.573337 17.9471 -38.3338 
-27.2688 -3.85383 1.72344 
11.5016 9.54123 -17.284 
-43.9324 31.0461 -53.1831 
115.051 16.9932 -15.0996 
17.765 6.96616 -11.3173 
-17.0126 -9.66853 -12.4819 
34.1918 -3.68584 -43.4129 
-113.087 -93.8534 189.293 
-37.5876 -15.3535 9.19859 
36.2212 9.18233 -82.7737 
-4.55786 7.66811 -18.2743 
3.53619 -5.7212 31.1429 
-3.80529 -19.5147 -15.6318 
8.94105 -31.3527 -29.6579 
-0.347599 -30.5459 -8.79643 
10.3135 13.6821 -24.8355 
11.9298 0.904039 -12.4232 
19.4944 8.37911 -17.7206 
-194.543 -119.104 -147.801 
3.05506 -0.216309 -7.73056 
-21.8109 -2.87118 -7.01818 
13.4546 158.706 -213.164 
8.40435 116.416 -79.755 
2.93309 131.366 -86.185 
-7.0914 -11.0322 -10.8772 
2.29104 -19.6148 -8.15483 
-1.94139 1.11038 1.33683 
-16.4038 -233.768 112.524 
-19.9004 22.3316 -47.7113 
-54.8026 10.1409 31.1261 
-101.793 -64.1831 -49.6749 
-7.40317 -0.0469857 2.78568 
2.15102 -0.587667 -0.0601996 
3.83461 3.99025 -6.18042 
-6.06842 -2.06358 -6.71904 
-0.965032 2.58163 2.60467 
66.3353 8.71632 -80.5906 
105.201 -148.795 -125.262 
206.048 76.8332 36.0348 
99.0031 48.071 17.5675 
17.1038 72.5027 -40.287 
10.215 -90.0831 -39.477 
-51.2822 -6.31991 -146.781 
-4.52876 12.0443 -28.4411 
27.837 -5.90582 6.31583 
14.3181 -6.26724 31.0098 
7.00757 -4.00403 -17.2763 
6.99652 -3.76045 -6.42389 
1.038 -0.907898 -2.12031 
65.8876 62.9422 49.5753 
-7.86221 -8.8482 -8.47625 
14.878 3.63301 13.9637 
-7.16149 -14.9761 -38.0474 
24.4554 19.7939 56.9129 
19.9792 438.433 -263.848 
-19.6492 320.331 -480.49 
1.41766 3.53567 6.01011 
-8.49723 15.5927 -10.4604 
-6.25638 -0.198297 7.71429 
15.0929 2.43142 26.1102 
11.786 -0.102381 8.90784 
-13.7995 -35.8676 42.4058 
9.59551 6.95339 -3.76554 
2.21206 -6.72152 -7.18639 
25.7888 -280.729 79.8846 
-25.7988 99.5344 203.792 
-0.131709 -1.70207 -2.03029 
-3.35854 6.26678 -18.3842 
-19.839 34.8003 -22.8701 
36.2589 2.64289 83.7224 
-69.022 -13.3636 -67.38 
5.47749 -0.526841 -9.45757 
-0.987619 -3.03202 9.16319 
12.9764 -9.84462 3.52984 
-25.4863 -12.6189 11.7193 
14.8461 43.8599 -79.7275 
-0.54546 0.523761 -7.23204 
-26.9142 -16.4558 -83.0076 
19.8539 -8.16774 -54.2422 
-0.15571 0.655959 -2.6101 
5.06337 -3.33471 -28.3373 
-104.55 -74.9381 -181.099 
-2.27109 4.42236 -9.11184 
10.986 -1.09969 -14.2971 
-0.0986917 -1.68775 -7.91123 
5.13714 -1.7464 14.7941 
-1.36897 0.213426 -6.73685 
0.59739 0.124303 2.12356 
2.75035 16.5351 -18.4783 
-0.312796 -1.52639 -4.46188 
0.462126 0.607637 3.89485 
35.516 -46.2727 14.7489 
-360.263 -167.489 463.552 
-29.1964 -7.18841 62.1229 
33.7834 -29.5356 17.5211 
33.6299 7.09923 -10.878 
26.4599 -8.96605 36.279 
333.872 48.3869 295.88 
124.895 -58.1104 52.4015 
-22.0343 41.4838 -117.165 
87.7891 -51.9636 -18.8421 
47.0589 -541.65 403.099 
31.817 24.5674 -86.4968 
626.229 539.733 -993.928 
-1.89114 -3.60133 -36.1928 
91.8583 4.30631 64.3795 
26.5017 23.754 -7.72512 
5.82365 197.634 910.671 
-9.34777 -3.94589 8.16734 
-106.814 8.1516 25.7388 
47.746 274.334 -183.937 
-159.735 65.1796 291.875 
-2.38588e-09 4.94735e-17 -2.38555e-09 
71.1851 5.3892 62.7344 
-5.02088 -1.16272 6.96949 
-390.866 -682.812 -237.47 
16.8184 87.3023 -156.787 
-72.0379 230.19 49.9501 
-0.654615 23.3363 34.681 
-54.1025 66.0537 -48.2215 
-521.936 -517.132 417.277 
-1.82703 3.47141 -4.93243 
5.12444 12.0251 15.4657 
-0.000350472 0.282786 3.77314 
35.3009 -58.3042 -14.1585 
-190.029 -248.947 -87.853 
0.168355 -13.5902 -7.39296 
1.01138 -5.80873 12.9622 
-21.6091 7.02409 17.9929 
606.527 210.166 -395.224 
16.9995 3.25124 -32.4777 
22.5628 -13.8208 34.0394 
-5.67075 -2.79461 35.1795 
-13.8691 6.2251 68.7364 
2.38588e-09 5.10766e-16 13.6117 
54.0213 -207.765 522.144 
2.18017e-15 8.95818e-15 13.6117 
105.47 -450.789 -145.81 
-25.5303 28.613 22.8294 
4.25845 -21.2877 256.955 
28.5388 -207.883 -386.287 
34.3526 77.9613 212.814 
-3.7538 25.7283 174.76 
-7.40256 1.20259 194.915 
-114.561 -41.0993 -239.04 
24.2846 -37.3726 90.0149 
-11.5145 28.8663 -67.5417 
10.4869 2.26927 65.0299 
-12.6418 -52.3221 131.761 
48.9981 39.9367 355.956 
-140.638 73.7942 -366.235 
-57.1608 -11.7776 -61.6833 
0.647699 -3.90057 13.5161 
6.37584 77.8458 153.709 
11.3316 87.8586 -430.614 
-5.00706 26.6921 149.888 
-4.1338 -8.57796 113.444 
-160.5 264.774 68.566 
134.569 -25.5084 62.2853 
-10.5751 16.3449 27.1043 
-3.18929e-14 -1.52801e-14 13.6117 
146.531 -89.648 354.515 
151.513 62.6813 356.12 
-0.0657216 0.072118 14.2482 
-7.28522 -69.6726 105.087 
100.944 -102.973 -106.328 
-2.94271 4.07271 19.666 
-1.48652 1.19262 9.75121 
1.15323 -48.157 155.594 
-25.0148 26.319 -30.8412 
199.454 -411.045 934.061 
1.50022e-05 7.99826e-05 13.6117 
174.052 -297.441 389.278 
366.878 492.413 1456.06 
-0.225845 0.0320424 13.5264 
0.519712 98.2929 290.758 
63.9641 36.4854 4.98852 
-0.225129 -1.3113 14.2918 
6.89178 3.94112 26.52 
104.362 -175.899 817.713 
8.63466e-05 5.029e-05 13.6118 
4.08511 13.1524 -4.88492 
0.846903 -5.86397 40.5489 
-0.26923 10.3939 26.2426 
2.9183e-07 -3.93049e-07 13.6117 
VECTORS moment double
0 0 0 
0 0 0 
0 0 0 
0 0 0 
0 0 0 
0 0 0 
0 0 0 
0 0 0 
0 0 0 
0 0 0 
0 0 0 
0 0 0 
0 0 0 
0 0 0 
0 0 0 
0 0 0 
0 0 0 
0 0 0 
0 0 0 
0 0 0 
0 0 0 
0 0 0 
0 0 0 
0 0 0 
0 0 0 
0 0 0 
0 0 0 
0 0 0 
0 0 0 
0 0 0 
0 0 0 
0 0 0 
0 0 0 
0 0 0 
0 0 0 
0 0 0 
0 0 0 
0 0 0 
0 0 0 
0 0 0 
0 0 0 
0 0 0 
0 0 0 
0 0 0 
0 0 0 
0 0 0 
0 0 0 
0 0 0 
0 0 0 
0 0 0 
0 0 0 
0 0 0 
0 0 0 
0 0 0 
0 0 0 
0 0 0 
0 0 0 
0 0 0 
0 0 0 
0 0 0 
0 0 0 
0 0 0 
0 0 0 
0 0 0 
0 0 0 
0 0 0 
0 0 0 
0 0 0 
0 0 0 
0 0 0 
0 0 0 
0 0 0 
0 0 0 
0 0 0 
0 0 0 
0 0 0 
0 0 0 
0 0 0 
0 0 0 
0 0 0 
0 0 0 
0 0 0 
0 0 0 
0 0 0 
0 0 0 
0 0 0 
0 0 0 
0 0 0 
0 0 0 
0 0 0 
0 0 0 
0 0 0 
0 0 0 
0 0 0 
0 0 0 
0 0 0 
0 0 0 
0 0 0 
0 0 0 
0 0 0 
0 0 0 
0 0 0 
0 0 0 
0 0 0 
0 0 0 
0 0 0 
0 0 0 
0 0 0 
0 0 0 
0 0 0 
0 0 0 
0 0 0 
0 0 0 
0 0 0 
0 0 0 
0 0 0 
0 0 0 
0 0 0 
0 0 0 
0 0 0 
0 0 0 
0 0 0 
0 0 0 
0 0 0 
0 0 0 
0 0 0 
0 0 0 
0 0 0 
0 0 0 
0 0 0 
0 0 0 
0 0 0 
0 0 0 
0 0 0 
0 0 0 
0 0 0 
0 0 0 
0 0 0 
0 0 0 
0 0 0 
0 0 0 
0 0 0 
0 0 0 
0 0 0 
0 0 0 
0 0 0 
0 0 0 
0 0 0 
0 0 0 
0 0 0 
0 0 0 
0 0 0 
0 0 0 
0 0 0 
0 0 0 
0 0 0 
0 0 0 
0 0 0 
0 0 0 
0 0 0 
0 0 0 
0 0 0 
0 0 0 
0 0 0 
0 0 0 
0 0 0 
0 0 0 
0 0 0 
0 0 0 
0 0 0 
0 0 0 
0 0 0 
0 0 0 
0 0 0 
0 0 0 
0 0 0 
0 0 0 
0 0 0 
0 0 0 
0 0 0 
0 0 0 
0 0 0 
0 0 0 
0 0 0 
0 0 0 
0 0 0 
0 0 0 
0 0 0 
0 0 0 
0 0 0 
0 0 0 
0 0 0 
0 0 0 
0 0 0 
0 0 0 
0 0 0 
0 0 0 
0 0 0 
0 0 0 
0 0 0 
0 0 0 
0 0 0 
0 0 0 
0 0 0 
0 0 0 
0 0 0 
0 0 0 
0 0 0 
0 0 0 
0 0 0 
0 0 0 
0 0 0 
0 0 0 
0 0 0 
0 0 0 
0 0 0 
0 0 0 
0 0 0 
0 0 0 
0 0 0 
0 0 0 
0 0 0 
0 0 0 
0 0 0 
0 0 0 
0 0 0 
0 0 0 
0 0 0 
0 0 0 
0 0 0 
0 0 0 
0 0 0 
0 0 0 
0 0 0 
0 0 0 
0 0 0 
0 0 0 
0 0 0 
0 0 0 
0 0 0 
0 0 0 
0 0 0 
0 0 0 
0 0 0 
0 0 0 
0 0 0 
0 0 0 
0 0 0 
0 0 0 
0 0 0 
0 0 0 
0 0 0 
0 0 0 
0 0 0 
0 0 0 
0 0 0 
0 0 0 
0 0 0 
0 0 0 
0 0 0 
0 0 0 
0 0 0 
0 0 0 
0 0 0 
0 0 0 
0 0 0 
0 0 0 
0 0 0 
0 0 0 
0 0 0 
0 0 0 
0 0 0 
0 0 0 
0 0 0 
0 0 0 
0 0 0 
0 0 0 
0 0 0 
0 0 0 
0 0 0 
0 0 0 
0 0 0 
0 0 0 
0 0 0 
0 0 0 
0 0 0 
0 0 0 
0 0 0 
0 0 0 
0 0 0 
0 0 0 
0 0 0 
0 0 0 
0 0 0 
0 0 0 
0 0 0 
0 0 0 
0 0 0 
0 0 0 
0 0 0 
0 0 0 
0 0 0 
0 0 0 
0 0 0 
0 0 0 
0 0 0 
0 0 0 
0 0 0 
0 0 0 
0 0 0 
0 0 0 
0 0 0 
0 0 0 
0 0 0 
0 0 0 
0 0 0 
0 0 0 
0 0 0 
0 0 0 
0 0 0 
0 0 0 
0 0 0 
0 0 0 
0 0 0 
0 0 0 
0 0 0 
0 0 0 
0 0 0 
0 0 0 
0 0 0 
0 0 0 
0 0 0 
0 0 0 
0 0 0 
0 0 0 
0 0 0 
0 0 0 
0 0 0 
0 0 0 
0 0 0 
0 0 0 
0 0 0 
0 0 0 
0 0 0 
0 0 0 
0 0 0 
0 0 0 
0 0 0 
0 0 0 
0 0 0 
0 0 0 
0 0 0 
0 0 0 
0 0 0 
0 0 0 
0 0 0 
0 0 0 
0 0 0 
0 0 0 
0 0 0 
0 0 0 
0 0 0 
0 0 0 
0 0 0 
0 0 0 
0 0 0 
0 0 0 
0 0 0 
0 0 0 
0 0 0 
0 0 0 
0 0 0 
0 0 0 
0 0 0 
0 0 0 
0 0 0 
0 0 0 
0 0 0 
0 0 0 
0 0 0 
0 0 0 
0 0 0 
0 0 0 
0 0 0 
0 0 0 
0 0 0 
0 0 0 
0 0 0 
0 0 0 
0 0 0 
0 0 0 
0 0 0 
0 0 0 
0 0 0 
0 0 0 
0 0 0 
0 0 0 
0 0 0 
0 0 0 
0 0 0 
0 0 0 
0 0 0 
0 0 0 
0 0 0 
0 0 0 
0 0 0 
0 0 0 
0 0 0 
0 0 0 
0 0 0 
0 0 0 
0 0 0 
0 0 0 
0 0 0 
0 0 0 
0 0 0 
0 0 0 
0 0 0 
0 0 0 
0 0 0 
0 0 0 
0 0 0 
0 0 0 
0 0 0 
0 0 0 
0 0 0 
0 0 0 
0 0 0 
0 0 0 
0 0 0 
0 0 0 
0 0 0 
0 0 0 
0 0 0 
0 0 0 
0 0 0 
0 0 0 
0 0 0 
0 0 0 
0 0 0 
0 0 0 
0 0 0 
0 0 0 
0 0 0 
0 0 0 
0 0 0 
0 0 0 
0 0 0 
0 0 0 
0 0 0 
0 0 0 
0 0 0 
0 0 0 
0 0 0 
0 0 0 
0 0 0 
0 0 0 
0 0 0 
0 0 0 
0 0 0 
0 0 0 
0 0 0 
0 0 0 
0 0 0 
0 0 0 
0 0 0 
0 0 0 
0 0 0 
0 0 0 
0 0 0 
0 0 0 
0 0 0 
0 0 0 
0 0 0 
0 0 0 
0 0 0 
SCALARS num_collisions int 1
LOOKUP_TABLE default
1 
1 
1 
1 
1 
1 
1 
1 
1 
1 
1 
1 
1 
1 
1 
1 
1 
1 
1 
1 
1 
1 
1 
1 
1 
1 
1 
1 
1 
1 
1 
1 
1 
1 
1 
1 
1 
1 
1 
1 
1 
1 
1 
1 
1 
1 
1 
1 
1 
1 
1 
1 
1 
1 
1 
1 
1 
1 
1 
1 
1 
1 
1 
1 
1 
1 
1 
1 
1 
1 
1 
1 
1 
1 
1 
1 
1 
1 
1 
1 
1 
1 
1 
1 
1 
1 
1 
1 
1 
1 
1 
1 
1 
1 
1 
1 
1 
1 
1 
1 
1 
1 
1 
1 
1 
1 
1 
1 
1 
1 
1 
1 
1 
1 
1 
1 
1 
1 
1 
1 
1 
1 
1 
1 
1 
1 
1 
1 
1 
1 
1 
1 
1 
1 
1 
1 
1 
1 
1 
1 
1 
1 
1 
1 
1 
1 
1 
1 
1 
1 
1 
1 
1 
1 
1 
1 
1 
1 
1 
1 
1 
1 
1 
1 
1 
1 
1 
1 
1 
1 
1 
1 
1 
1 
1 
1 
1 
1 
1 
1 
1 
1 
1 
1 