# vtk DataFile Version 2.0
Generated by NetDEM
ASCII 
DATASET POLYDATA
POINTS 576 double
-0.4181 -0.405397 -0.463253 
-0.424995 -0.401748 -0.391421 
-0.411165 -0.00616936 -0.464117 
-0.409569 -0.00926715 -0.38819 
-0.449968 0.117923 -0.450043 
-0.379953 0.0843064 -0.387066 
-0.449968 0.117923 -0.450043 
-0.450004 0.17598 -0.368654 
-0.44894 0.347128 -0.450026 
-0.356661 0.37279 -0.404871 
-0.44894 0.347128 -0.450026 
-0.438963 0.274455 -0.382072 
-0.309762 -0.208359 -0.450011 
-0.227112 -0.183313 -0.399604 
-0.19564 -0.00894602 -0.450009 
-0.172976 0.0787536 -0.450006 
-0.173127 0.171887 -0.463823 
-0.172976 0.0787536 -0.450006 
-0.252841 0.369287 -0.464033 
-0.230366 0.324518 -0.392908 
-0.054496 -0.39887 -0.461204 
0.0398071 -0.43741 -0.434219 
-0.054496 -0.39887 -0.461204 
-0.0852709 -0.388353 -0.394533 
-0.15223 -0.140291 -0.450011 
-0.227112 -0.183313 -0.399604 
-0.0558159 -0.0862298 -0.450011 
-0.00601124 -0.022643 -0.392745 
0.0346074 0.178687 -0.452265 
0.0251968 0.260181 -0.449687 
0.0346074 0.178687 -0.452265 
-0.0574083 0.126735 -0.441386 
0.0346074 0.178687 -0.452265 
0.110204 0.136289 -0.399048 
-0.0303297 0.322189 -0.440611 
-0.108641 0.316545 -0.394382 
0.193091 -0.400723 -0.462863 
0.206224 -0.412 -0.389269 
0.169356 -0.209118 -0.462961 
0.166036 -0.204039 -0.389122 
0.172785 -0.00956932 -0.46282 
0.175634 0.00509045 -0.384214 
0.172785 -0.00956932 -0.46282 
0.252528 -0.0574597 -0.431731 
0.160085 0.209657 -0.465042 
0.118334 0.300497 -0.422918 
0.304269 0.404683 -0.411097 
0.370638 0.438557 -0.465055 
0.304269 0.404683 -0.411097 
0.207633 0.385987 -0.393423 
0.304269 0.404683 -0.411097 
0.330623 0.308281 -0.412311 
0.449969 -0.407076 -0.450042 
0.397734 -0.45001 -0.376383 
0.449969 -0.407076 -0.450042 
0.438154 -0.354585 -0.365784 
0.3387 -0.0101527 -0.450014 
0.252528 -0.0574597 -0.431731 
0.381116 0.0915043 -0.450012 
0.323556 0.0642944 -0.372905 
-0.424995 -0.401748 -0.391421 
-0.434233 -0.43653 -0.32555 
-0.424995 -0.401748 -0.391421 
-0.327312 -0.412514 -0.395114 
-0.450004 0.17598 -0.368654 
-0.445853 0.100215 -0.30354 
-0.450004 0.17598 -0.368654 
-0.438963 0.274455 -0.382072 
-0.327312 -0.412514 -0.395114 
-0.25618 -0.426808 -0.357399 
-0.227112 -0.183313 -0.399604 
-0.196312 -0.237638 -0.321504 
-0.310225 0.155687 -0.462357 
-0.285994 0.118513 -0.387576 
-0.144513 0.402346 -0.446032 
-0.108641 0.316545 -0.394382 
-0.144513 0.402346 -0.446032 
-0.219575 0.441627 -0.398555 
-0.0852709 -0.388353 -0.394533 
-0.100365 -0.307944 -0.35983 
0.322636 -0.23575 -0.0820314 
0.303106 -0.326863 -0.122877 
0.322636 -0.23575 -0.0820314 
0.352327 -0.216401 0.0113899 
0.0251968 0.260181 -0.449687 
-0.0358449 0.223412 -0.381072 
0.118334 0.300497 -0.422918 
0.0640254 0.394609 -0.406643 
0.206224 -0.412 -0.389269 
0.207419 -0.432993 -0.316182 
0.206224 -0.412 -0.389269 
0.260329 -0.321334 -0.346051 
0.166036 -0.204039 -0.389122 
0.21039 -0.199324 -0.302676 
0.166036 -0.204039 -0.389122 
0.161665 -0.303916 -0.373789 
0.166036 -0.204039 -0.389122 
0.236876 -0.142953 -0.38213 
0.175634 0.00509045 -0.384214 
0.163382 0.0474493 -0.323606 
0.195068 0.112243 -0.456579 
0.273634 0.0668102 -0.444024 
0.195068 0.112243 -0.456579 
0.259911 0.176562 -0.445843 
0.195068 0.112243 -0.456579 
0.110204 0.136289 -0.399048 
0.288535 0.376396 -0.316453 
0.24848 0.450008 -0.261936 
0.397734 -0.45001 -0.376383 
0.44995 -0.448569 -0.291113 
0.397734 -0.45001 -0.376383 
0.349473 -0.411267 -0.297839 
0.438154 -0.354585 -0.365784 
0.357507 -0.314619 -0.322219 
0.438154 -0.354585 -0.365784 
0.44992 -0.313432 -0.275428 
0.450018 0.137895 -0.394328 
0.449832 0.233329 -0.364474 
0.450018 0.137895 -0.394328 
0.38329 0.167369 -0.325951 
0.424952 0.339563 -0.456319 
0.438446 0.255461 -0.459906 
-0.434233 -0.43653 -0.32555 
-0.43666 -0.450773 -0.244158 
-0.329515 -0.00753481 -0.336341 
-0.256821 0.0046019 -0.313189 
-0.438963 0.274455 -0.382072 
-0.423181 0.242093 -0.46395 
-0.438963 0.274455 -0.382072 
-0.422071 0.259646 -0.284641 
-0.182412 -0.372538 -0.452008 
-0.160449 -0.446561 -0.390614 
-0.347401 0.335062 -0.330298 
-0.356661 0.37279 -0.404871 
-0.0358449 0.223412 -0.381072 
-0.107953 0.275044 -0.30775 
0.255908 0.330731 -0.463776 
0.330623 0.308281 -0.412311 
0.207419 -0.432993 -0.316182 
0.262388 -0.438706 -0.232373 
0.0507861 -0.0920684 -0.449902 
0.133566 -0.0975584 -0.396305 
0.163382 0.0474493 -0.323606 
0.128079 0.0642383 -0.261507 
0.273634 0.0668102 -0.444024 
0.323556 0.0642944 -0.372905 
0.110204 0.136289 -0.399048 
0.0512296 0.117082 -0.325089 
0.378701 -0.215642 -0.450038 
0.450023 -0.207252 -0.380485 
0.378701 -0.215642 -0.450038 
0.336356 -0.176834 -0.368192 
0.382263 -0.106644 -0.450029 
0.449958 -0.104695 -0.376488 
0.382263 -0.106644 -0.450029 
0.353265 -0.0780929 -0.358686 
0.449832 0.233329 -0.364474 
0.448416 0.220951 -0.265275 
0.449832 0.233329 -0.364474 
0.438446 0.255461 -0.459906 
-0.43666 -0.450773 -0.244158 
-0.394222 -0.442163 -0.164813 
-0.172502 -0.192698 -0.185552 
-0.0965713 -0.248609 -0.218833 
-0.285994 0.118513 -0.387576 
-0.345909 0.147225 -0.312855 
-0.285994 0.118513 -0.387576 
-0.231231 0.176473 -0.32725 
-0.285994 0.118513 -0.387576 
-0.379953 0.0843064 -0.387066 
-0.345909 0.147225 -0.312855 
-0.354539 0.204113 -0.23108 
-0.160449 -0.446561 -0.390614 
-0.25618 -0.426808 -0.357399 
-0.160449 -0.446561 -0.390614 
-0.163055 -0.384273 -0.325063 
-0.0574083 0.126735 -0.441386 
-0.133413 0.141634 -0.38315 
-0.356661 0.37279 -0.404871 
-0.313877 0.435954 -0.341137 
0.0972584 -0.449021 -0.329661 
0.0145999 -0.431181 -0.314635 
0.0212906 0.0476001 -0.450055 
0.0317466 0.0422295 -0.35374 
0.0640254 0.394609 -0.406643 
-0.00216929 0.438161 -0.464839 
0.262388 -0.438706 -0.232373 
0.192192 -0.421989 -0.161289 
0.262388 -0.438706 -0.232373 
0.293535 -0.385783 -0.190889 
0.161665 -0.303916 -0.373789 
0.260329 -0.321334 -0.346051 
0.128079 0.0642383 -0.261507 
0.204354 0.143621 -0.25117 
0.128079 0.0642383 -0.261507 
0.0435795 0.076043 -0.249201 
0.128079 0.0642383 -0.261507 
0.110737 -0.00157454 -0.178579 
0.259911 0.176562 -0.445843 
0.328783 0.209151 -0.398623 
0.259911 0.176562 -0.445843 
0.235598 0.230838 -0.37715 
0.155766 0.450015 -0.450023 
0.207633 0.385987 -0.393423 
0.357507 -0.314619 -0.322219 
0.393784 -0.224233 -0.299589 
0.449958 -0.104695 -0.376488 
0.438341 -0.0374934 -0.303446 
0.38329 0.167369 -0.325951 
0.328783 0.209151 -0.398623 
0.428774 0.367014 -0.376102 
0.399233 0.298554 -0.307999 
-0.394222 -0.442163 -0.164813 
-0.381423 -0.37311 -0.100253 
-0.394222 -0.442163 -0.164813 
-0.46208 -0.452129 -0.103559 
-0.381423 -0.37311 -0.100253 
-0.327019 -0.439793 -0.0251377 
-0.00601124 -0.022643 -0.392745 
0.0317466 0.0422295 -0.35374 
0.0731235 -0.348898 -0.381573 
0.0145999 -0.431181 -0.314635 
0.0317466 0.0422295 -0.35374 
0.0512296 0.117082 -0.325089 
0.293535 -0.385783 -0.190889 
0.303106 -0.326863 -0.122877 
0.0435795 0.076043 -0.249201 
0.00592176 0.113349 -0.175602 
0.235598 0.230838 -0.37715 
0.226324 0.184534 -0.315986 
0.450023 -0.207252 -0.380485 
0.393784 -0.224233 -0.299589 
0.397201 0.448649 -0.357494 
0.437597 0.398533 -0.291875 
-0.46208 -0.452129 -0.103559 
-0.443915 -0.450063 0.0282069 
-0.231231 0.176473 -0.32725 
-0.129218 0.18901 -0.308835 
-0.231231 0.176473 -0.32725 
-0.222634 0.206387 -0.232223 
-0.313877 0.435954 -0.341137 
-0.380106 0.450009 -0.267569 
-0.313877 0.435954 -0.341137 
-0.219575 0.441627 -0.398555 
-0.163055 -0.384273 -0.325063 
-0.0510925 -0.396178 -0.254955 
-0.163055 -0.384273 -0.325063 
-0.216169 -0.366047 -0.218212 
-0.0965713 -0.248609 -0.218833 
-0.140564 -0.322138 -0.272965 
-0.0965713 -0.248609 -0.218833 
-0.0642098 -0.288613 -0.133195 
-0.230366 0.324518 -0.392908 
-0.167933 0.354113 -0.319022 
-0.100365 -0.307944 -0.35983 
-0.0144611 -0.343753 -0.313968 
-0.100365 -0.307944 -0.35983 
-0.140564 -0.322138 -0.272965 
0.0512296 0.117082 -0.325089 
0.0227363 0.185241 -0.254135 
-0.108641 0.316545 -0.394382 
-0.167933 0.354113 -0.319022 
0.192192 -0.421989 -0.161289 
0.270909 -0.417695 -0.0806007 
0.236876 -0.142953 -0.38213 
0.336356 -0.176834 -0.368192 
0.236876 -0.142953 -0.38213 
0.252528 -0.0574597 -0.431731 
0.236876 -0.142953 -0.38213 
0.252427 -0.0768572 -0.327634 
0.202148 0.311598 -0.334364 
0.22909 0.325533 -0.238667 
0.202148 0.311598 -0.334364 
0.207633 0.385987 -0.393423 
0.207633 0.385987 -0.393423 
0.147319 0.449868 -0.34571 
0.437597 0.398533 -0.291875 
0.446408 0.374114 -0.200639 
-0.107953 0.275044 -0.30775 
-0.129218 0.18901 -0.308835 
0.133566 -0.0975584 -0.396305 
0.096888 -0.0655609 -0.300038 
0.261881 -0.121894 -0.233202 
0.252427 -0.0768572 -0.327634 
0.261881 -0.121894 -0.233202 
0.310685 -0.162025 -0.153766 
0.226324 0.184534 -0.315986 
0.154047 0.229373 -0.267968 
0.226324 0.184534 -0.315986 
0.316111 0.243021 -0.304643 
0.147319 0.449868 -0.34571 
0.12132 0.371919 -0.295163 
0.393784 -0.224233 -0.299589 
0.447059 -0.233456 -0.215484 
0.393784 -0.224233 -0.299589 
0.361293 -0.152267 -0.238237 
0.323556 0.0642944 -0.372905 
0.362159 0.0400225 -0.283922 
0.446408 0.374114 -0.200639 
0.411661 0.409633 -0.106025 
-0.445853 0.100215 -0.30354 
-0.425814 0.136241 -0.212442 
-0.422071 0.259646 -0.284641 
-0.448302 0.235383 -0.191248 
-0.159625 -0.305178 -0.161036 
-0.216169 -0.366047 -0.218212 
-0.159625 -0.305178 -0.161036 
-0.216034 -0.338723 -0.0699236 
-0.143946 0.369538 -0.0353925 
-0.234748 0.383526 0.0055945 
-0.129218 0.18901 -0.308835 
-0.0684034 0.139899 -0.229911 
-0.145287 0.443128 -0.326458 
-0.0685178 0.407071 -0.301055 
0.0145999 -0.431181 -0.314635 
-0.0510925 -0.396178 -0.254955 
-0.0047773 0.41294 -0.358636 
0.0218483 0.447926 -0.260645 
0.204354 0.143621 -0.25117 
0.224355 0.196553 -0.167549 
0.24848 0.450008 -0.261936 
0.175958 0.446917 -0.193208 
0.24848 0.450008 -0.261936 
0.27763 0.448908 -0.166291 
0.44992 -0.313432 -0.275428 
0.447059 -0.233456 -0.215484 
0.44992 -0.313432 -0.275428 
0.42356 -0.386127 -0.212027 
0.362159 0.0400225 -0.283922 
0.442945 0.0789332 -0.239671 
-0.298179 0.214415 -0.155889 
-0.354539 0.204113 -0.23108 
-0.298179 0.214415 -0.155889 
-0.222634 0.206387 -0.232223 
-0.190381 0.0861139 -0.305664 
-0.165075 0.117619 -0.211612 
-0.380106 0.450009 -0.267569 
-0.420046 0.449655 -0.1759 
-0.216169 -0.366047 -0.218212 
-0.235618 -0.427221 -0.155492 
-0.216169 -0.366047 -0.218212 
-0.140387 -0.415103 -0.209871 
-0.0642098 -0.288613 -0.133195 
-0.0592563 -0.323028 -0.0394839 
-0.167933 0.354113 -0.319022 
-0.16458 0.335556 -0.209035 
-0.0510925 -0.396178 -0.254955 
-0.0603009 -0.380239 -0.166309 
-0.0510925 -0.396178 -0.254955 
-0.140387 -0.415103 -0.209871 
-0.0175606 0.201142 -0.136763 
0.00592176 0.113349 -0.175602 
0.270909 -0.417695 -0.0806007 
0.362038 -0.400114 -0.0523046 
0.321828 -0.10334 -0.0370607 
0.379178 -0.136024 -0.0939692 
0.22909 0.325533 -0.238667 
0.302676 0.335078 -0.170304 
0.42356 -0.386127 -0.212027 
0.368905 -0.45 -0.157872 
0.447059 -0.233456 -0.215484 
0.450008 -0.168995 -0.139116 
0.411661 0.409633 -0.106025 
0.435264 0.396347 -0.0236211 
-0.216034 -0.338723 -0.0699236 
-0.248232 -0.339488 0.0207585 
-0.434293 0.395233 -0.00219545 
-0.45 0.449489 -0.0804979 
-0.16458 0.335556 -0.209035 
-0.246038 0.304773 -0.152473 
-0.16458 0.335556 -0.209035 
-0.156928 0.433426 -0.206062 
-0.0603009 -0.380239 -0.166309 
0.00385442 -0.376158 -0.102178 
0.00592176 0.113349 -0.175602 
-0.0371244 0.0759727 -0.0962157 
0.201538 0.432927 -0.0975579 
0.175958 0.446917 -0.193208 
0.449989 0.148927 -0.143928 
0.379529 0.173497 -0.210496 
0.435264 0.396347 -0.0236211 
0.411201 0.449471 0.0303507 
-0.420046 0.449655 -0.1759 
-0.45 0.449489 -0.0804979 
-0.156928 0.433426 -0.206062 
-0.100994 0.379915 -0.121749 
0.00385442 -0.376158 -0.102178 
0.011174 -0.410252 -0.0171602 
0.0956214 0.44061 -0.134069 
0.175958 0.446917 -0.193208 
0.0956214 0.44061 -0.134069 
0.00896991 0.377625 -0.108255 
-0.0685178 0.407071 -0.301055 
-0.0280142 0.447605 -0.194165 
0.379178 -0.136024 -0.0939692 
0.450008 -0.168995 -0.139116 
0.224355 0.196553 -0.167549 
0.25109 0.178031 -0.0809682 
0.448416 0.220951 -0.265275 
0.449918 0.272903 -0.17985 
0.448416 0.220951 -0.265275 
0.379529 0.173497 -0.210496 
0.411201 0.449471 0.0303507 
0.345281 0.418586 0.0811775 
0.411201 0.449471 0.0303507 
0.447019 0.447591 0.132338 
-0.132868 -0.345737 0.024617 
-0.180545 -0.432735 0.0389814 
-0.449573 0.0951863 -0.124411 
-0.425814 0.136241 -0.212442 
-0.195562 0.426672 -0.100876 
-0.100994 0.379915 -0.121749 
-0.195562 0.426672 -0.100876 
-0.234748 0.383526 0.0055945 
0.011174 -0.410252 -0.0171602 
-0.016264 -0.422062 0.0617979 
0.00896991 0.377625 -0.108255 
-0.100994 0.379915 -0.121749 
0.00896991 0.377625 -0.108255 
-0.0408932 0.306336 -0.030152 
0.25109 0.178031 -0.0809682 
0.282602 0.197769 -0.00102162 
-0.234748 0.383526 0.0055945 
-0.206359 0.365077 0.0870618 
-0.016264 -0.422062 0.0617979 
-0.0346918 -0.416309 0.152797 
-0.0205821 0.427433 -0.0367729 
0.00689804 0.409823 0.0409157 
0.447019 0.447591 0.132338 
0.426563 0.396004 0.236322 
-0.0931945 0.419009 0.0665219 
0.00689804 0.409823 0.0409157 
0.130849 0.151905 0.0757095 
0.19112 0.206162 0.0506079 
0.282602 0.197769 -0.00102162 
0.19112 0.206162 0.0506079 
0.0543259 0.217919 0.399284 
0.0673377 0.133774 0.426562 
0.124678 -0.361225 0.433284 
0.212446 -0.341031 0.395277 
-0.450004 0.17598 -0.368654 
-0.5 0.17598 -0.368654 
-0.45 0.449489 -0.0804979 
-0.5 0.449489 -0.0804972 
-0.46208 -0.452129 -0.103559 
-0.5 -0.431686 -0.0921313 
-0.45 -0.232685 -0.154202 
-0.5 -0.232679 -0.154129 
0.450018 0.137895 -0.394328 
0.5 0.137895 -0.394327 
0.446408 0.374114 -0.200639 
0.5 0.393884 -0.191319 
0.450003 -0.14275 -0.28399 
0.5 -0.142748 -0.283988 
0.450023 -0.207252 -0.380485 
0.5 -0.207252 -0.380485 
0.450008 -0.168995 -0.139116 
0.5 -0.169 -0.139112 
0.437597 0.398533 -0.291875 
0.500003 0.397796 -0.278937 
-0.0964224 -0.457687 0.236717 
-0.103421 -0.500001 0.206475 
0.397734 -0.45001 -0.376383 
0.397738 -0.5 -0.376382 
-0.160449 -0.446561 -0.390614 
-0.15003 -0.500037 -0.37762 
-0.394222 -0.442163 -0.164813 
-0.382061 -0.500003 -0.180341 
0.368905 -0.45 -0.157872 
0.368909 -0.5 -0.157865 
-0.145287 0.443128 -0.326458 
-0.132463 0.500001 -0.317362 
0.411201 0.449471 0.0303507 
0.422932 0.500016 0.0380987 
0.155766 0.450015 -0.450023 
0.155768 0.5 -0.450023 
-0.380106 0.450009 -0.267569 
-0.380106 0.5 -0.267567 
0.397201 0.448649 -0.357494 
0.416317 0.500005 -0.37787 
0.24848 0.450008 -0.261936 
0.248479 0.5 -0.261936 
-0.290764 0.266924 -0.450007 
-0.290763 0.266926 -0.5 
0.172785 -0.00956932 -0.46282 
0.198925 -0.00327208 -0.500021 
-0.309762 -0.208359 -0.450011 
-0.309762 -0.208361 -0.5 
0.424952 0.339563 -0.456319 
0.455205 0.354636 -0.500024 
-0.182412 -0.372538 -0.452008 
-0.188818 -0.38935 -0.500067 
-0.15223 -0.140291 -0.450011 
-0.15223 -0.140294 -0.5 
-0.411165 -0.00616936 -0.464117 
-0.394815 -0.00831076 -0.500006 
-0.4181 -0.405397 -0.463253 
-0.404312 -0.401373 -0.500025 
0.438446 0.255461 -0.459906 
0.453492 0.25387 -0.500022 
0.0212906 0.0476001 -0.450055 
0.0215789 0.0453144 -0.500013 
0.3387 -0.0101527 -0.450014 
0.3387 -0.0101533 -0.5 
0.255908 0.330731 -0.463776 
0.269154 0.334977 -0.500006 
-0.00216929 0.438161 -0.464839 
0.0193012 0.433842 -0.500003 
-0.44894 0.347128 -0.450026 
-0.448939 0.347128 -0.5 
0.370638 0.438557 -0.465055 
0.376 0.445731 -0.500014 
-0.19564 -0.00894602 -0.450009 
-0.195639 -0.00894662 -0.5 
0.449969 -0.407076 -0.450042 
0.449969 -0.407075 -0.5 
0.449727 -0.0208048 -0.450007 
0.449727 -0.0207969 -0.5 
-0.423181 0.242093 -0.46395 
-0.426004 0.253294 -0.500008 
-0.0558159 -0.0862298 -0.450011 
-0.055816 -0.08623 -0.5 
-0.173127 0.171887 -0.463823 
-0.17062 0.166621 -0.500004 
-0.271893 -0.428836 -0.458848 
-0.28104 -0.42494 -0.500001 
0.193091 -0.400723 -0.462863 
0.21619 -0.409933 -0.500029 
0.0251968 0.260181 -0.449687 
0.0152648 0.257284 -0.500009 
0.0507861 -0.0920684 -0.449902 
0.0648388 -0.0916592 -0.500007 
0.160085 0.209657 -0.465042 
0.149685 0.193602 -0.500003 
0.378701 -0.215642 -0.450038 
0.378701 -0.215642 -0.5 
-0.252841 0.369287 -0.464033 
-0.259969 0.356627 -0.500025 
0.169356 -0.209118 -0.462961 
0.158008 -0.198982 -0.500028 
0.430897 -0.301071 -0.450007 
0.430897 -0.301071 -0.5 
0.381116 0.0915043 -0.450012 
0.381116 0.0915052 -0.5 
0.155766 0.450015 -0.450023 
0.155768 0.450015 -0.5 
0.273634 0.0668102 -0.444024 
0.289235 0.0422657 -0.50001 
-0.310225 0.155687 -0.462357 
-0.296472 0.134116 -0.500011 
-0.0574083 0.126735 -0.441386 
-0.0945736 0.153203 -0.500003 
-0.446862 0.447365 -0.450007 
-0.446862 0.447364 -0.5 
-0.0303297 0.322189 -0.440611 
-0.031068 0.335879 -0.500008 
-0.44977 -0.203612 -0.450007 
-0.44977 -0.203612 -0.5 
-0.449968 0.117923 -0.450043 
-0.449968 0.117922 -0.5 
0.0346074 0.178687 -0.452265 
0.0381577 0.163829 -0.500007 
0.259911 0.176562 -0.445843 
0.274803 0.190438 -0.500021 
0.195068 0.112243 -0.456579 
0.193458 0.14078 -0.500035 
0.382263 -0.106644 -0.450029 
0.382264 -0.106642 -0.5 
-0.144513 0.402346 -0.446032 
-0.119859 0.416875 -0.500016 
-0.054496 -0.39887 -0.461204 
-0.0507598 -0.38104 -0.500019 
-0.172976 0.0787536 -0.450006 
-0.169158 0.0753911 -0.500001 
0.272401 -0.196624 -0.450007 
0.272401 -0.196622 -0.5 
LINES 288 864
2 0 1
2 2 3
2 4 5
2 6 7
2 8 9
2 10 11
2 12 13
2 14 15
2 16 17
2 18 19
2 20 21
2 22 23
2 24 25
2 26 27
2 28 29
2 30 31
2 32 33
2 34 35
2 36 37
2 38 39
2 40 41
2 42 43
2 44 45
2 46 47
2 48 49
2 50 51
2 52 53
2 54 55
2 56 57
2 58 59
2 60 61
2 62 63
2 64 65
2 66 67
2 68 69
2 70 71
2 72 73
2 74 75
2 76 77
2 78 79
2 80 81
2 82 83
2 84 85
2 86 87
2 88 89
2 90 91
2 92 93
2 94 95
2 96 97
2 98 99
2 100 101
2 102 103
2 104 105
2 106 107
2 108 109
2 110 111
2 112 113
2 114 115
2 116 117
2 118 119
2 120 121
2 122 123
2 124 125
2 126 127
2 128 129
2 130 131
2 132 133
2 134 135
2 136 137
2 138 139
2 140 141
2 142 143
2 144 145
2 146 147
2 148 149
2 150 151
2 152 153
2 154 155
2 156 157
2 158 159
2 160 161
2 162 163
2 164 165
2 166 167
2 168 169
2 170 171
2 172 173
2 174 175
2 176 177
2 178 179
2 180 181
2 182 183
2 184 185
2 186 187
2 188 189
2 190 191
2 192 193
2 194 195
2 196 197
2 198 199
2 200 201
2 202 203
2 204 205
2 206 207
2 208 209
2 210 211
2 212 213
2 214 215
2 216 217
2 218 219
2 220 221
2 222 223
2 224 225
2 226 227
2 228 229
2 230 231
2 232 233
2 234 235
2 236 237
2 238 239
2 240 241
2 242 243
2 244 245
2 246 247
2 248 249
2 250 251
2 252 253
2 254 255
2 256 257
2 258 259
2 260 261
2 262 263
2 264 265
2 266 267
2 268 269
2 270 271
2 272 273
2 274 275
2 276 277
2 278 279
2 280 281
2 282 283
2 284 285
2 286 287
2 288 289
2 290 291
2 292 293
2 294 295
2 296 297
2 298 299
2 300 301
2 302 303
2 304 305
2 306 307
2 308 309
2 310 311
2 312 313
2 314 315
2 316 317
2 318 319
2 320 321
2 322 323
2 324 325
2 326 327
2 328 329
2 330 331
2 332 333
2 334 335
2 336 337
2 338 339
2 340 341
2 342 343
2 344 345
2 346 347
2 348 349
2 350 351
2 352 353
2 354 355
2 356 357
2 358 359
2 360 361
2 362 363
2 364 365
2 366 367
2 368 369
2 370 371
2 372 373
2 374 375
2 376 377
2 378 379
2 380 381
2 382 383
2 384 385
2 386 387
2 388 389
2 390 391
2 392 393
2 394 395
2 396 397
2 398 399
2 400 401
2 402 403
2 404 405
2 406 407
2 408 409
2 410 411
2 412 413
2 414 415
2 416 417
2 418 419
2 420 421
2 422 423
2 424 425
2 426 427
2 428 429
2 430 431
2 432 433
2 434 435
2 436 437
2 438 439
2 440 441
2 442 443
2 444 445
2 446 447
2 448 449
2 450 451
2 452 453
2 454 455
2 456 457
2 458 459
2 460 461
2 462 463
2 464 465
2 466 467
2 468 469
2 470 471
2 472 473
2 474 475
2 476 477
2 478 479
2 480 481
2 482 483
2 484 485
2 486 487
2 488 489
2 490 491
2 492 493
2 494 495
2 496 497
2 498 499
2 500 501
2 502 503
2 504 505
2 506 507
2 508 509
2 510 511
2 512 513
2 514 515
2 516 517
2 518 519
2 520 521
2 522 523
2 524 525
2 526 527
2 528 529
2 530 531
2 532 533
2 534 535
2 536 537
2 538 539
2 540 541
2 542 543
2 544 545
2 546 547
2 548 549
2 550 551
2 552 553
2 554 555
2 556 557
2 558 559
2 560 561
2 562 563
2 564 565
2 566 567
2 568 569
2 570 571
2 572 573
2 574 575
POINT_DATA 576
SCALARS id int 1
LOOKUP_TABLE default
0
25
2
27
3
103
3
28
4
84
4
54
6
31
7
58
8
58
9
134
10
60
10
35
11
31
12
108
13
38
13
83
13
69
14
139
15
40
16
41
17
42
17
147
18
39
19
24
19
144
19
98
20
45
20
46
22
147
23
172
25
50
25
30
28
178
28
54
30
105
31
87
33
78
34
139
34
159
35
135
36
240
36
111
38
63
39
89
40
65
40
116
41
216
41
91
41
141
42
67
43
68
43
93
43
69
44
194
45
145
45
120
46
95
46
195
48
73
48
97
49
74
50
75
52
77
54
109
54
179
55
80
59
84
63
158
64
98
65
90
66
166
67
92
68
172
69
138
71
121
71
146
72
96
72
171
73
273
73
74
75
100
76
131
78
79
78
128
78
103
79
279
80
105
80
130
83
133
84
129
85
185
88
113
89
114
90
140
90
115
91
116
92
193
92
117
92
142
93
123
93
118
94
144
95
170
96
222
97
123
99
173
100
101
100
125
101
175
108
113
110
185
113
138
115
240
117
238
118
168
121
170
124
149
125
150
128
183
128
253
129
204
129
159
130
210
130
205
131
155
131
206
134
209
135
160
135
155
138
163
139
209
140
215
141
146
141
147
141
322
143
219
143
144
144
169
149
174
158
183
166
191
167
322
167
192
168
218
168
198
169
214
170
221
170
271
172
197
174
224
178
303
179
201
181
205
181
225
182
309
183
213
184
263
185
210
189
239
193
268
194
344
194
319
195
221
195
220
197
272
202
279
202
253
203
208
204
254
205
255
205
230
206
281
209
234
210
235
210
230
212
238
215
265
217
266
219
318
220
245
221
296
224
249
225
300
227
304
234
258
234
259
235
260
238
337
244
344
248
348
249
274
254
304
259
333
260
285
262
344
262
289
263
264
266
296
268
293
273
298
273
348
274
299
274
324
276
305
278
303
284
333
284
309
285
310
289
333
289
313
293
343
309
358
310
335
314
339
324
424
334
339
342
368
343
368
363
413
365
416
28
0
304
0
125
0
26
0
48
1
174
1
196
1
121
1
296
1
149
1
330
2
45
2
80
2
100
2
245
2
184
3
274
3
94
3
204
3
124
3
194
3
53
4
17
4
6
4
49
4
55
4
11
4
2
4
0
4
74
4
88
4
22
4
64
4
114
4
4
4
24
4
7
4
20
4
122
4
109
4
12
4
8
4
5
4
15
4
38
4
66
4
18
4
71
4
9
4
16
4
21
4
23
4
94
4
68
4
33
4
83
4
29
4
14
4
1
4
3
4
13
4
93
4
43
4
72
4
34
4
10
4
58
4
47
4
CELL_DATA 288
VECTORS force double
0.00505762 16.0776 -90.0471 
2.40513 -0.177794 -10.4061 
-8.3502 3.99738 -17.4561 
12.9997 -21.4426 -53.4903 
-69.9969 -113.24 -216.466 
-15.318 -21.8737 -88.5255 
-4.22742 -0.723749 -7.30498 
-0.308717 -3.28315 -4.60672 
0.751341 7.55466 -5.35093 
79.5471 27.4346 89.6762 
-17.7216 12.5551 -39.7641 
-0.339789 -2.0054 -33.4013 
3.96791 2.94265 -8.5629 
-1.72489 -2.62358 -7.74955 
47.8416 27.273 -184.763 
18.5323 27.2559 -103.929 
-14.4765 30.6394 -107.104 
-48.8119 51.0957 4.22894 
-10.8093 61.7711 214.48 
-13.0257 64.8515 -124.514 
23.1967 -23.1295 -63.6903 
-20.0431 28.9561 -19.9964 
1.25805 -6.19077 -5.56391 
-8.12555 365.953 -335.577 
174.335 -50.2026 -41.7647 
184.747 153.663 -807.854 
6.62614 14.3993 -16.8667 
2.45428 -26.1696 -51.2246 
15.1529 8.69711 -13.4796 
31.1186 -6.18872 18.9533 
0.277936 10.8438 -60.9903 
-12.5844 3.9731 -16.6135 
-9.06485 3.4992 -27.2742 
-4.15767 -10.2374 2.31196 
-25.9181 -1.44345 3.55632 
-1.21433 2.25691 -4.58386 
-3.12044 -1.58047 -43.037 
-103.354 -12.1919 88.9784 
-102.009 8.69911 22.8592 
0.577347 -10.6797 -27.314 
20.8697 90.0915 65.2061 
-15.2514 -13.7288 -29.4536 
-82.9959 87.1145 172.483 
1.7643 -2.39947 -0.229923 
110.72 130.593 -271.669 
114.315 70.5888 -432.283 
4.0543 73.7962 -24.4767 
96.474 -37.7629 187.343 
-28.5482 -26.4102 -63.5437 
22.4916 -18.0365 -46.4018 
-88.9722 19.687 -163.932 
-185.214 -158.896 -480.965 
17.576 2.59375 -115.342 
14.3474 -14.6852 -19.7303 
-0.609082 -1.87302 -5.07302 
2.68839 -2.76657 -4.38833 
-0.159485 -6.9271 -3.55028 
2.31479 -15.7654 -33.8621 
-420.97 -20.2245 27.1605 
-421.702 -154.685 -125.162 
-18.3991 33.5277 46.7085 
-0.101442 5.47745 -50.5361 
1.65823 0.148607 1.4005 
2.39373 23.5947 25.0815 
0.787708 -18.4433 -4.48629 
-50.4394 73.1577 -298 
-125.782 10.7709 64.7419 
149.928 157.768 -181.237 
129.809 -71.3117 -763.106 
-14.9124 -11.84 -21.9591 
-4.20699 0.799336 -12.3212 
20.8944 2.48443 -40.0748 
41.0812 -12.886 3.67489 
16.4806 -15.532 30.947 
-26.9264 0.0629149 -48.5545 
9.27268 -5.12113 -15.1853 
-27.9776 -18.6715 -85.3315 
-8.25108 3.68979 -0.116919 
97.8728 1.7329 -61.9876 
135.063 -35.4818 38.171 
-3.06931 5.4146 -40.3673 
-18.3455 8.82817 9.88365 
8.40045 -2.87751 -17.9974 
-2.71176 2.69577 -9.43569 
14.3516 6.32879 3.09864 
4.41675 -6.64149 -9.38074 
51.6704 -12.6077 -30.6485 
-5.27807 -42.6125 -208.34 
14.497 -17.89 -22.1691 
242.173 -64.1776 -163.164 
-0.017635 3.46921 -2.10124 
0.351898 1.93355 -23.3322 
1.01387 -1.53035 6.66297 
5.99934 -5.90581 -36.0939 
-14.9259 -16.325 -59.8975 
33.7968 82.4984 -296.358 
-4.32725 -10.9258 -5.74496 
20.9976 -9.71247 -15.4178 
3.52367 23.4244 -30.2241 
253.695 -190.773 766.68 
237.286 -178.769 1193.15 
1.43676 23.1493 -34.5576 
-7.53707 -15.3768 -6.35504 
-2.05303 -78.1291 -85.8165 
409.366 173.99 235.533 
7.66407 30.3214 -21.1927 
-0.984398 -4.84726 -7.73745 
0.104125 0.0169557 -14.0155 
-0.511646 -0.175941 -1.69174 
-1.90034 -0.994973 4.89266 
0.649378 -7.05705 1.88992 
1.15472 -6.56356 7.78605 
-6.88383 -86.9789 -34.3482 
17.7674 -27.1833 -22.2593 
68.5768 -228.007 -1239.71 
19.8438 4.86766 -45.1059 
-61.048 225.346 -69.4175 
-0.802516 0.420411 -10.428 
-46.6479 -63.0496 16.5795 
6.69935 -15.8929 -12.7571 
-24.6782 90.9065 115.145 
-201.333 -3.00251 -17.8163 
51.5021 33.7815 -198.371 
13.1075 -23.947 -124.667 
66.1946 29.2179 119.278 
-96.5133 52.1085 -241.158 
-23.6383 43.9767 -168.098 
-3.09679 3.95059 -4.83048 
1.75943 -18.266 -8.78125 
9.64109 -7.60651 -28.8663 
44.188 47.3205 -119.986 
-8.83351 -3.38547 -14.9912 
-2.457 9.08507 -2.12595 
2.21759 -37.3945 24.7034 
7.8319 4.38259 4.7879 
13.9038 2.83602 -8.66667 
39.5684 -30.6223 15.6346 
-7.11734 4.02045 -30.4313 
-23.1124 -221.944 -1.97531 
-120.017 -99.7874 94.3564 
-0.931354 0.312018 -3.56997 
0.347815 0.14619 0.514517 
0.0552326 0.258209 0.176594 
-122.946 -264.039 593.971 
-92.9097 169.05 591.643 
18.1791 -0.503433 -16.8057 
-6.43317 -3.14747 -28.0314 
4.30539 -6.29508 -11.2604 
-21.26 -4.89562 -51.7636 
13.5124 -7.55038 -62.2725 
-0.823916 2.50976 -14.8048 
0.47067 2.04075 -13.5763 
-0.199158 7.24164 29.4267 
-4.75602 -3.94784 -14.2537 
32.0381 -10.2891 6.12175 
39.9499 21.7218 -31.6942 
-0.747454 1.86884 -1.86561 
39.1969 14.1635 50.9908 
-59.8932 -114.261 -218.867 
-9.5397 -5.60657 -8.47175 
59.4884 6.70286 -53.8786 
-4.81841 4.77152 -2.52422 
-1.40601 -14.9395 -13.8748 
2.08273 4.93596 -8.58657 
-7.684 -1.26376 -5.17205 
0.384694 0.257709 0.527207 
-0.383906 1.55994 1.16454 
-0.142448 -0.178101 -0.634172 
55.3837 31.1975 -59.9138 
8.2587 10.8167 -22.7684 
27.9691 -12.5409 -20.551 
-20.9166 100.012 -173.251 
17.7573 44.4323 19.9076 
65.5459 29.1342 -73.4665 
69.3058 24.6318 -63.1852 
-10.8466 27.9917 23.8943 
-2.51233 -1.46913 -4.99881 
-2.78533 -0.421753 1.84704 
-2.01096 -0.800393 -5.18389 
2.37857 2.62549 -2.03702 
-8.57503 -19.7712 -28.6414 
23.3324 -13.0405 -95.6465 
-1.47216 1.9369 6.62817 
-0.525371 -4.3312 15.5176 
5.3975 11.0952 -19.291 
-25.8776 -31.2176 -107.39 
-14.5976 2.10553 -53.8365 
4.16116 -4.79089 -7.6302 
8.43289 6.5924 4.55669 
-0.781831 -4.47764 13.8913 
-13.4512 -15.2046 -81.155 
-3.59326 3.17489 -9.14447 
-36.7016 36.0753 -37.3978 
-9.68643 6.47888 -39.1455 
-104.9 -31.0341 58.2081 
115.764 48.5481 -33.4214 
0.131349 1.07481 1.40183 
-4.83158 6.65496 7.8416 
-0.457177 -6.98513 -10.2645 
9.39408 1.52277 2.79562 
-0.00362594 4.13952 13.6012 
-11.163 31.39 -59.9588 
20.0432 16.0048 -63.1042 
0.519522 0.463325 0.0438177 
0.0889199 0.115317 4.56855 
-59.3173 18.1596 31.6883 
-7.22125 16.8804 -33.6734 
1.23792 5.2832 -21.4346 
143.792 -2.76208 31.3845 
-16.5754 25.0731 -27.3911 
-3.3266 8.2593 -2.013 
5.12038 4.62644 -12.2203 
2.74312 2.43846 -13.5654 
5.22107 13.7272 -66.8085 
-6.88348 -0.648811 -5.43909 
-5.37261 2.34511 42.6785 
10.8123 13.0259 15.1374 
-1.46724 4.6149 3.69724 
0.194678 -0.752546 0.478866 
165.943 -357.422 121.808 
2.02866 -2.61698 0.997749 
-1.39444 -0.303357 3.67232 
0.856877 -0.213334 7.50418 
0.94618 10.7321 153.218 
-318.23 200.11 159.977 
-0.766147 39.3689 86.7424 
-2.66199 -0.177968 4.05653 
-47.885 -3.75387 7.75017 
-14.1516 -10.0073 -10.2018 
-1.7159 -190.074 67.8658 
-0.98895 -5.76894 -3.39439 
5.16569 19.9582 0.708065 
-86.2372 214.469 -41.1507 
-3.54879 11.9227 -9.13724 
0.347707 1.04678 3.28827 
0.345851 -4.61984 4.67857 
-25.9555 -66.9798 76.9087 
4.61276 -41.158 8.47042 
57.1197 -43.1064 -89.3188 
-61.4567 54.2674 -114.161 
-9.54537 -23.6752 18.2411 
-0.0197195 -0.0170227 13.4162 
1.87353 -3.40019 102.435 
3.81648 1.15237 20.3907 
-15.7184 -19.3536 76.7079 
40.9355 -51.7699 297.479 
-4.24876 -2.41343 22.1228 
-2.3719 -0.228993 24.0919 
-5.28555 -16.1204 100.721 
-28.2673 55.6534 114.284 
-0.231672 1.76147 40.528 
-12.2469 -6.7115 29.1329 
-146.449 -19.9951 -367.092 
-2.54288 -0.356434 19.5515 
-40.3576 -29.5609 -30.0141 
-112.858 -139.069 172.702 
0.456713 3.72688 18.2596 
-7.93705 9.66238 81.335 
-5.6947e-16 6.85817e-14 13.6117 
-0.770812 -3.57538 26.8113 
2.23364 3.46735 21.0824 
-0.89112 -7.79481 19.1276 
0.184068 -1.30801 13.5025 
40.6603 -29.6262 280.042 
-13.0746 -100.268 156.315 
3.24934 0.238233 25.9463 
1.54373 9.1896 19.6916 
16.9655 5.62446 76.9274 
-0.856617 -32.7199 198.745 
21.4424 -24.8323 90.3227 
8.61045e-09 3.33248e-08 13.6117 
-9.0029 -2.23551 31.0153 
8.72893 -13.7482 48.1898 
-25.1288 41.3959 58.1328 
2.4766 3.33531 53.7618 
21.1341 12.1792 51.3728 
4.40036e-10 -7.30932e-10 13.6117 
-12.5947 3.78427 25.4305 
-7.52512e-16 6.95283e-16 13.6117 
4.82186 12.8647 81.7734 
-5.23509 8.74936 -88.4869 
147.714 356.473 1020.06 
-13.8635 -8.40578 -1.24672 
29.8761 -3.33379 79.2506 
-10.7766 -11.5063 153.592 
19.1109 -15.9743 94.964 
1.07006 4.41331 3.49429 
-3.99476e-15 7.73078e-15 13.6117 
VECTORS moment double
0 0 0 
0 0 0 
0 0 0 
0 0 0 
0 0 0 
0 0 0 
0 0 0 
0 0 0 
0 0 0 
0 0 0 
0 0 0 
0 0 0 
0 0 0 
0 0 0 
0 0 0 
0 0 0 
0 0 0 
0 0 0 
0 0 0 
0 0 0 
0 0 0 
0 0 0 
0 0 0 
0 0 0 
0 0 0 
0 0 0 
0 0 0 
0 0 0 
0 0 0 
0 0 0 
0 0 0 
0 0 0 
0 0 0 
0 0 0 
0 0 0 
0 0 0 
0 0 0 
0 0 0 
0 0 0 
0 0 0 
0 0 0 