# vtk DataFile Version 2.0
Generated by NetDEM
ASCII 
DATASET POLYDATA
POINTS 388 double
-0.417419 -0.404889 -0.462786 
-0.419554 -0.400415 -0.389202 
-0.408281 -0.00656794 -0.462773 
-0.394434 -0.00561372 -0.385184 
-0.449346 0.118372 -0.450011 
-0.449999 0.17438 -0.367179 
-0.449525 0.345683 -0.450015 
-0.356243 0.368299 -0.403172 
-0.271029 -0.429777 -0.459089 
-0.323789 -0.412113 -0.395105 
-0.252641 0.369155 -0.464045 
-0.219376 0.432527 -0.391095 
-0.252641 0.369155 -0.464045 
-0.356243 0.368299 -0.403172 
-0.0510338 -0.403697 -0.461565 
-0.0798708 -0.400731 -0.390801 
0.193499 -0.400144 -0.462618 
0.206982 -0.407401 -0.389578 
0.170514 -0.20875 -0.463192 
0.170849 -0.202392 -0.389512 
0.17276 -0.010001 -0.46284 
0.176492 0.00123306 -0.383997 
0.160086 0.209924 -0.465054 
0.116918 0.296461 -0.41387 
0.160086 0.209924 -0.465054 
0.260257 0.177551 -0.445534 
0.449972 -0.405936 -0.450013 
0.437177 -0.354012 -0.365528 
0.430957 -0.300869 -0.450008 
0.437177 -0.354012 -0.365528 
0.338335 -0.0104123 -0.450011 
0.256705 -0.0585515 -0.418102 
0.381415 0.0913309 -0.450018 
0.323784 0.0644714 -0.37284 
0.381415 0.0913309 -0.450018 
0.449908 0.137362 -0.393548 
-0.419554 -0.400415 -0.389202 
-0.421579 -0.42938 -0.320435 
-0.394434 -0.00561372 -0.385184 
-0.338104 -0.00636899 -0.318477 
-0.144062 0.398659 -0.446778 
-0.104424 0.317096 -0.383082 
-0.144062 0.398659 -0.446778 
-0.219376 0.432527 -0.391095 
-0.0798708 -0.400731 -0.390801 
-0.0890141 -0.31967 -0.348048 
-0.0798708 -0.400731 -0.390801 
-0.159314 -0.445559 -0.387246 
0.0138468 0.0284711 -0.120058 
0.114677 0.0174172 -0.14207 
0.0240907 0.261157 -0.449543 
0.116918 0.296461 -0.41387 
0.116918 0.296461 -0.41387 
0.201943 0.311943 -0.332249 
0.116918 0.296461 -0.41387 
0.0740139 0.38857 -0.397232 
0.206982 -0.407401 -0.389578 
0.291009 -0.450004 -0.365381 
0.206982 -0.407401 -0.389578 
0.197825 -0.419863 -0.314789 
0.170849 -0.202392 -0.389512 
0.168439 -0.296266 -0.366901 
0.170849 -0.202392 -0.389512 
0.146708 -0.0998644 -0.341885 
0.170849 -0.202392 -0.389512 
0.241487 -0.143425 -0.363581 
0.176492 0.00123306 -0.383997 
0.165952 0.0378943 -0.320002 
0.195348 0.112149 -0.456584 
0.115738 0.136134 -0.393213 
0.287612 0.377844 -0.315302 
0.201943 0.311943 -0.332249 
0.399884 -0.450013 -0.375524 
0.35246 -0.413579 -0.295379 
0.449908 0.137362 -0.393548 
0.450005 0.232963 -0.36422 
0.424307 0.339547 -0.455802 
0.426908 0.366827 -0.375235 
-0.421579 -0.42938 -0.320435 
-0.425071 -0.441669 -0.24458 
-0.338104 -0.00636899 -0.318477 
-0.288244 0.0113662 -0.261355 
-0.439959 0.273093 -0.381575 
-0.42146 0.241006 -0.463825 
-0.182117 -0.371261 -0.452416 
-0.159314 -0.445559 -0.387246 
0.0337364 -0.436182 -0.41257 
0.0693318 -0.349038 -0.359229 
0.218589 -0.293833 0.31954 
0.303377 -0.254168 0.354428 
0.218589 -0.293833 0.31954 
0.166209 -0.367571 0.339907 
0.197825 -0.419863 -0.314789 
0.242048 -0.427747 -0.227804 
0.197825 -0.419863 -0.314789 
0.0953274 -0.447263 -0.326167 
0.165952 0.0378943 -0.320002 
0.143884 0.0559146 -0.254076 
0.273539 0.0666858 -0.443881 
0.323784 0.0644714 -0.37284 
0.115738 0.136134 -0.393213 
0.0745108 0.115965 -0.30831 
0.378536 -0.20313 -0.450054 
0.342382 -0.171377 -0.362406 
0.378536 -0.20313 -0.450054 
0.450033 -0.208001 -0.380358 
0.450005 0.232963 -0.36422 
0.439078 0.255998 -0.459773 
0.450005 0.232963 -0.36422 
0.448837 0.221068 -0.264939 
-0.425071 -0.441669 -0.24458 
-0.393958 -0.445421 -0.157722 
-0.288244 0.0113662 -0.261355 
-0.360291 -0.00658286 -0.186813 
-0.288244 0.0113662 -0.261355 
-0.218737 0.0933169 -0.245646 
-0.344459 0.147145 -0.277429 
-0.383103 0.0866255 -0.347009 
-0.159314 -0.445559 -0.387246 
-0.255243 -0.426812 -0.351751 
-0.159314 -0.445559 -0.387246 
-0.163479 -0.400715 -0.311287 
-0.356243 0.368299 -0.403172 
-0.312832 0.430031 -0.336205 
0.0953274 -0.447263 -0.326167 
0.0212431 -0.439231 -0.284573 
0.0740139 0.38857 -0.397232 
0.156113 0.450004 -0.450013 
0.242048 -0.427747 -0.227804 
0.272354 -0.38785 -0.173224 
0.168439 -0.296266 -0.366901 
0.0693318 -0.349038 -0.359229 
0.168439 -0.296266 -0.366901 
0.261892 -0.310521 -0.340563 
0.260257 0.177551 -0.445534 
0.234727 0.231372 -0.37614 
0.260257 0.177551 -0.445534 
0.328227 0.209868 -0.396678 
0.35773 -0.315734 -0.315329 
0.261892 -0.310521 -0.340563 
0.35773 -0.315734 -0.315329 
0.397057 -0.225557 -0.297406 
0.35773 -0.315734 -0.315329 
0.35246 -0.413579 -0.295379 
0.383741 0.168 -0.324824 
0.328227 0.209868 -0.396678 
0.330506 0.308796 -0.411067 
0.328227 0.209868 -0.396678 
0.426908 0.366827 -0.375235 
0.398749 0.299081 -0.306507 
0.426908 0.366827 -0.375235 
0.396376 0.449704 -0.354766 
-0.360291 -0.00658286 -0.186813 
-0.374597 0.00746624 -0.0883276 
-0.360291 -0.00658286 -0.186813 
-0.452928 -0.0303962 -0.185789 
-0.255243 -0.426812 -0.351751 
-0.268183 -0.377082 -0.2912 
0.0693318 -0.349038 -0.359229 
-0.00836229 -0.352973 -0.289813 
0.272354 -0.38785 -0.173224 
0.192085 -0.420936 -0.113661 
0.0701512 0.078873 -0.221038 
0.0745108 0.115965 -0.30831 
0.0701512 0.078873 -0.221038 
0.114677 0.0174172 -0.14207 
0.234727 0.231372 -0.37614 
0.225839 0.185979 -0.314981 
0.234727 0.231372 -0.37614 
0.201943 0.311943 -0.332249 
0.450033 -0.208001 -0.380358 
0.397057 -0.225557 -0.297406 
0.396376 0.449704 -0.354766 
0.437631 0.400022 -0.289251 
-0.312832 0.430031 -0.336205 
-0.368322 0.449994 -0.255541 
-0.312832 0.430031 -0.336205 
-0.219376 0.432527 -0.391095 
-0.0890141 -0.31967 -0.348048 
-0.127561 -0.350039 -0.249995 
0.0745108 0.115965 -0.30831 
0.0369912 0.181456 -0.20904 
0.241487 -0.143425 -0.363581 
0.256705 -0.0585515 -0.418102 
0.201943 0.311943 -0.332249 
0.208087 0.387558 -0.390356 
0.201943 0.311943 -0.332249 
0.22853 0.325435 -0.236685 
0.208087 0.387558 -0.390356 
0.158732 0.437834 -0.319395 
0.342382 -0.171377 -0.362406 
0.35949 -0.0826899 -0.3195 
0.437631 0.400022 -0.289251 
0.446534 0.375082 -0.197759 
-0.127561 -0.350039 -0.249995 
-0.0290296 -0.404272 -0.21358 
-0.127561 -0.350039 -0.249995 
-0.132644 -0.408067 -0.164739 
-0.337299 0.370519 0.0897071 
-0.231542 0.396541 0.100936 
-0.219376 0.432527 -0.391095 
-0.14917 0.435001 -0.324603 
0.0369912 0.181456 -0.20904 
-0.0352584 0.259246 -0.173151 
0.146708 -0.0998644 -0.341885 
0.12842 -0.0971335 -0.244772 
0.225839 0.185979 -0.314981 
0.154558 0.228922 -0.26393 
0.225839 0.185979 -0.314981 
0.315935 0.243148 -0.302933 
0.225839 0.185979 -0.314981 
0.208386 0.149453 -0.245746 
0.398749 0.299081 -0.306507 
0.315935 0.243148 -0.302933 
0.446534 0.375082 -0.197759 
0.382436 0.425116 -0.167886 
-0.374597 0.00746624 -0.0883276 
-0.400039 0.00494467 0.00997355 
-0.268183 -0.377082 -0.2912 
-0.214115 -0.388866 -0.200408 
-0.14917 0.435001 -0.324603 
-0.170186 0.356771 -0.290837 
0.0212431 -0.439231 -0.284573 
-0.0290296 -0.404272 -0.21358 
0.208386 0.149453 -0.245746 
0.232827 0.195479 -0.155432 
0.445831 -0.315016 -0.268024 
0.433871 -0.254226 -0.189538 
0.449997 -0.147101 -0.26512 
0.388966 -0.157056 -0.186536 
0.382436 0.425116 -0.167886 
0.316282 0.338835 -0.125109 
-0.368322 0.449994 -0.255541 
-0.393097 0.448516 -0.158705 
-0.00257928 -0.254438 0.1723 
0.0765133 -0.213329 0.217533 
-0.170186 0.356771 -0.290837 
-0.176239 0.34896 -0.183226 
-0.0290296 -0.404272 -0.21358 
-0.0351213 -0.38605 -0.128758 
0.345267 -0.129338 0.0570994 
0.354144 -0.0559502 0.140288 
0.154558 0.228922 -0.26393 
0.176532 0.264128 -0.18085 
-0.0351213 -0.38605 -0.128758 
0.00366047 -0.38187 -0.0489639 
0.448481 -0.201578 0.0389942 
0.382193 -0.162197 -0.0228024 
0.382193 -0.162197 -0.0228024 
0.422367 -0.191165 -0.0986704 
0.388966 -0.157056 -0.186536 
0.422367 -0.191165 -0.0986704 
-0.400039 0.00494467 0.00997355 
-0.438176 0.085213 0.0521841 
-0.0982629 -0.437661 0.265872 
-0.195742 -0.411867 0.271598 
-0.0982629 -0.437661 0.265872 
-0.00290921 -0.412222 0.215583 
-0.195742 -0.411867 0.271598 
-0.227816 -0.313572 0.300862 
0.0032673 0.273231 0.430372 
-0.0209984 0.186767 0.410403 
-0.452928 -0.0303962 -0.185789 
-0.500011 -0.0190825 -0.205068 
-0.45 0.380454 -0.331366 
-0.5 0.380454 -0.331365 
-0.45019 -0.171652 0.183668 
-0.5 -0.171633 0.183812 
0.446534 0.375082 -0.197759 
0.500015 0.376701 -0.16747 
0.450005 0.232963 -0.36422 
0.5 0.232963 -0.364221 
0.450033 -0.208001 -0.380358 
0.5 -0.208003 -0.380359 
0.437631 0.400022 -0.289251 
0.50003 0.397664 -0.276599 
0.399884 -0.450013 -0.375524 
0.399887 -0.5 -0.375522 
0.0953274 -0.447263 -0.326167 
0.0502748 -0.500005 -0.351279 
0.291009 -0.450004 -0.365381 
0.291009 -0.5 -0.365381 
-0.460895 -0.452311 -0.0935042 
-0.470193 -0.5 -0.0845427 
-0.159314 -0.445559 -0.387246 
-0.152095 -0.500003 -0.376079 
-0.393958 -0.445421 -0.157722 
-0.362936 -0.500008 -0.168669 
0.0924408 -0.44419 0.346138 
0.0964005 -0.5 0.324724 
0.395682 -0.45002 0.415711 
0.39568 -0.5 0.415645 
0.156113 0.450004 -0.450013 
0.156114 0.5 -0.450013 
0.396376 0.449704 -0.354766 
0.41021 0.500012 -0.378046 
-0.161509 0.075479 -0.442493 
-0.11506 0.0827907 -0.500001 
0.17276 -0.010001 -0.46284 
0.197555 -0.00820699 -0.500018 
0.0654168 -0.10108 -0.445503 
0.0780258 -0.100758 -0.500002 
-0.182117 -0.371261 -0.452416 
-0.188788 -0.389387 -0.500014 
-0.144062 0.398659 -0.446778 
-0.120206 0.416717 -0.500033 
-0.408281 -0.00656794 -0.462773 
-0.377009 -0.0268358 -0.500022 
-0.417419 -0.404889 -0.462786 
-0.388197 -0.389569 -0.500012 
0.439078 0.255998 -0.459773 
0.426595 0.267549 -0.500006 
-0.28154 0.255509 -0.450007 
-0.28153 0.255494 -0.5 
0.338335 -0.0104123 -0.450011 
0.338335 -0.010414 -0.5 
0.260257 0.177551 -0.445534 
0.274792 0.190488 -0.500021 
-0.0510338 -0.403697 -0.461565 
-0.053632 -0.399225 -0.500028 
0.378536 -0.20313 -0.450054 
0.378538 -0.203125 -0.5 
-0.449525 0.345683 -0.450015 
-0.449525 0.345683 -0.5 
0.449998 -0.00741783 -0.450006 
0.449998 -0.00740988 -0.5 
0.370147 0.438224 -0.465037 
0.375544 0.445374 -0.500003 
-0.19394 -0.0107074 -0.450007 
-0.193941 -0.0107072 -0.5 
0.449972 -0.405936 -0.450013 
0.44997 -0.405937 -0.5 
0.382417 -0.102014 -0.450162 
0.382413 -0.102005 -0.5 
-0.42146 0.241006 -0.463825 
-0.416049 0.236483 -0.500005 
-0.0554744 -0.0866213 -0.450035 
-0.0554744 -0.0866137 -0.5 
-0.173995 0.171969 -0.463699 
-0.179631 0.168938 -0.500003 
-0.271029 -0.429777 -0.459089 
-0.280844 -0.425107 -0.500005 
0.193499 -0.400144 -0.462618 
0.226212 -0.398544 -0.500035 
0.0240907 0.261157 -0.449543 
0.015345 0.257235 -0.500011 
0.271497 -0.192945 -0.450007 
0.271497 -0.192943 -0.5 
0.160086 0.209924 -0.465054 
0.175108 0.197406 -0.500009 
-0.293099 -0.209113 -0.450007 
-0.293065 -0.209111 -0.5 
-0.252641 0.369155 -0.464045 
-0.259935 0.356608 -0.500032 
0.170514 -0.20875 -0.463192 
0.158022 -0.199002 -0.500011 
0.430957 -0.300869 -0.450008 
0.430952 -0.300871 -0.5 
0.381415 0.0913309 -0.450018 
0.381414 0.0913308 -0.5 
0.156113 0.450004 -0.450013 
0.156114 0.450004 -0.5 
0.273539 0.0666858 -0.443881 
0.294698 0.0531134 -0.500002 
-0.309491 0.157211 -0.462759 
-0.316142 0.148464 -0.500003 
0.250632 0.336692 -0.461831 
0.249446 0.361466 -0.500003 
0.0077269 0.437487 -0.454641 
0.0451201 0.437483 -0.500001 
-0.0322115 0.322389 -0.440561 
-0.0310866 0.335872 -0.500003 
-0.449986 -0.203523 -0.450007 
-0.449986 -0.203523 -0.5 
-0.449346 0.118372 -0.450011 
-0.449344 0.118378 -0.5 
0.0340217 0.178888 -0.45226 
0.0381201 0.164158 -0.500003 
-0.0654962 0.140708 -0.432864 
-0.0945807 0.153525 -0.500003 
0.195348 0.112149 -0.456584 
0.209042 0.144549 -0.500042 
0.0285585 0.0557891 -0.449709 
0.0412813 0.0434191 -0.500003 
-0.137409 -0.147241 -0.450007 
-0.137376 -0.14725 -0.5 
-0.394991 -0.384318 0.445328 
-0.37273 -0.373085 0.500043 
LINES 194 582
2 0 1
2 2 3
2 4 5
2 6 7
2 8 9
2 10 11
2 12 13
2 14 15
2 16 17
2 18 19
2 20 21
2 22 23
2 24 25
2 26 27
2 28 29
2 30 31
2 32 33
2 34 35
2 36 37
2 38 39
2 40 41
2 42 43
2 44 45
2 46 47
2 48 49
2 50 51
2 52 53
2 54 55
2 56 57
2 58 59
2 60 61
2 62 63
2 64 65
2 66 67
2 68 69
2 70 71
2 72 73
2 74 75
2 76 77
2 78 79
2 80 81
2 82 83
2 84 85
2 86 87
2 88 89
2 90 91
2 92 93
2 94 95
2 96 97
2 98 99
2 100 101
2 102 103
2 104 105
2 106 107
2 108 109
2 110 111
2 112 113
2 114 115
2 116 117
2 118 119
2 120 121
2 122 123
2 124 125
2 126 127
2 128 129
2 130 131
2 132 133
2 134 135
2 136 137
2 138 139
2 140 141
2 142 143
2 144 145
2 146 147
2 148 149
2 150 151
2 152 153
2 154 155
2 156 157
2 158 159
2 160 161
2 162 163
2 164 165
2 166 167
2 168 169
2 170 171
2 172 173
2 174 175
2 176 177
2 178 179
2 180 181
2 182 183
2 184 185
2 186 187
2 188 189
2 190 191
2 192 193
2 194 195
2 196 197
2 198 199
2 200 201
2 202 203
2 204 205
2 206 207
2 208 209
2 210 211
2 212 213
2 214 215
2 216 217
2 218 219
2 220 221
2 222 223
2 224 225
2 226 227
2 228 229
2 230 231
2 232 233
2 234 235
2 236 237
2 238 239
2 240 241
2 242 243
2 244 245
2 246 247
2 248 249
2 250 251
2 252 253
2 254 255
2 256 257
2 258 259
2 260 261
2 262 263
2 264 265
2 266 267
2 268 269
2 270 271
2 272 273
2 274 275
2 276 277
2 278 279
2 280 281
2 282 283
2 284 285
2 286 287
2 288 289
2 290 291
2 292 293
2 294 295
2 296 297
2 298 299
2 300 301
2 302 303
2 304 305
2 306 307
2 308 309
2 310 311
2 312 313
2 314 315
2 316 317
2 318 319
2 320 321
2 322 323
2 324 325
2 326 327
2 328 329
2 330 331
2 332 333
2 334 335
2 336 337
2 338 339
2 340 341
2 342 343
2 344 345
2 346 347
2 348 349
2 350 351
2 352 353
2 354 355
2 356 357
2 358 359
2 360 361
2 362 363
2 364 365
2 366 367
2 368 369
2 370 371
2 372 373
2 374 375
2 376 377
2 378 379
2 380 381
2 382 383
2 384 385
2 386 387
POINT_DATA 388
SCALARS id int 1
LOOKUP_TABLE default
0
25
2
27
3
28
4
84
5
30
9
159
9
84
10
35
15
40
16
41
17
42
18
39
18
93
20
46
21
46
22
147
23
172
23
48
25
50
27
52
34
139
34
159
35
135
35
80
37
142
38
39
39
143
39
89
40
70
40
65
41
91
41
166
41
141
42
67
43
69
44
143
45
120
48
73
49
99
50
75
52
77
54
109
55
80
60
110
61
396
61
390
65
90
65
85
67
92
68
172
69
138
71
146
71
121
73
74
73
273
75
100
77
102
77
203
79
103
80
105
80
130
84
129
85
185
89
94
90
115
91
110
91
116
93
118
93
123
95
116
95
170
95
120
97
123
98
123
99
173
99
124
102
177
102
127
105
180
110
160
115
140
117
138
117
142
118
168
118
143
121
170
124
149
129
204
129
159
135
155
138
163
141
147
143
144
143
219
144
169
146
171
149
174
155
210
155
230
157
309
159
184
163
188
166
191
168
218
168
198
168
193
173
198
174
199
177
301
180
205
184
209
185
210
193
268
195
221
196
271
199
318
204
254
207
336
209
234
210
235
217
242
218
243
235
260
246
266
266
296
271
296
301
327
330
355
330
335
355
381
363
388
127
0
104
0
311
0
174
1
73
1
121
1
149
1
45
2
85
2
70
2
125
2
80
2
100
2
315
2
395
2
94
3
124
3
58
4
17
4
66
4
55
4
34
4
2
4
0
4
74
4
53
4
22
4
93
4
10
4
71
4
4
4
122
4
24
4
7
4
20
4
72
4
109
4
12
4
8
4
5
4
15
4
38
4
47
4
18
4
6
4
9
4
16
4
21
4
23
4
94
4
68
4
33
4
64
4
114
4
14
4
1
4
3
4
13
4
83
4
43
4
88
4
11
4
375
5
CELL_DATA 194
VECTORS force double
2.08456 7.86831 -33.1548 
-14.5891 -21.7716 -80.5145 
0.463093 -3.53911 -37.9065 
-5.02634 -11.4286 -21.1458 
1.86264 -0.956335 -8.87443 
26.219 -27.9217 -66.7587 
3.52868 -38.3717 -61.3947 
16.3156 -17.749 -81.8863 
22.6734 17.7109 -116.47 
-5.53787 11.5589 -37.9371 
26.5363 -36.9862 -178.312 
4.8425 -9.55334 -2.27923 
-20.4998 3.15807 -25.3222 
3.08012 -8.76208 -16.2682 
-0.536601 1.04059 3.4159 
6.1497 4.53997 -8.67388 
3.41269 10.9283 -5.85904 
4.8981 27.6696 -3.24249 
-2.24581 9.70895 -47.9638 
-38.8599 -13.2612 -79.8843 
-6.94866 3.52958 -7.64217 
64.2845 14.3616 -93.1721 
3.3948 -8.47279 -68.8307 
9.27005 2.86779 5.1416 
-18.8671 -38.5521 98.1464 
-35.131 -12.0514 -36.7257 
40.5101 1.76071 2.0017 
6.01592 -9.87217 -4.98056 
-5.84619 6.57945 -8.32162 
31.0962 6.29053 -88.4206 
-4.14987 10.8579 -19.0987 
-2.10754 2.24435 -1.96821 
-3.39567 -3.60238 -4.05798 
-13.959 -0.457125 65.6027 
98.1044 3.81383 -143.859 
28.662 3.46999 1.68783 
-3.72614 3.29802 8.01782 
-53.1354 -22.8371 -46.5158 
-8.73042 -40.9261 -22.2364 
-0.450966 13.6426 -61.9674 
4.3524 -10.047 -101.966 
-1.90186 3.07973 10.1039 
-1.97284 2.1828 -37.4394 
4.28489 0.187285 3.16404 
-245.201 -108.315 -54.6134 
101.919 76.0737 8.39839 
-8.4151 -3.16253 -36.7337 
39.6814 -1.99113 -35.0774 
1.71331 -1.13858 -18.0171 
1.19075 2.95567 -3.41829 
76.1579 1.23695 -97.186 
9.19914 -5.84461 -18.0923 
-33.8055 4.50911 -50.9718 
53.6432 -9.39495 56.3761 
5.31763 23.7507 30.9017 
-17.1886 22.7933 -53.5 
20.5226 6.43352 -70.1468 
-12.4828 -14.4728 -13.2181 
10.9685 24.962 22.8701 
11.0125 -1.87025 -16.4751 
-1.24277 -2.99997 -14.5154 
4.73662 -31.2181 -55.1237 
55.9524 -20.2516 -51.8057 
-13.1931 -15.8284 13.6434 
-5.66671 -4.69706 -19.0293 
9.24287 5.66088 -4.40026 
-15.3795 4.17078 -10.3173 
7.56189 -1.73822 -93.688 
-12.5499 -1.15621 -15.7411 
11.9034 -4.19706 1.10989 
-1.9167 2.22791 2.21773 
-2.83158 -1.04945 0.620935 
9.38833 -3.17136 13.0532 
-1.40918 4.96034 -4.44542 
4.64846 11.5184 -9.35335 
5.34001 -21.3768 -11.7938 
-44.082 -13.8315 -155.868 
117.092 23.5676 109.735 
3.35496 0.746843 -3.60629 
3.7078 2.80754 -1.81269 
65.656 10.3008 -203.877 
51.9856 -49.8086 47.924 
25.7796 84.8028 -164.986 
11.2286 -7.55971 -70.7595 
14.8011 -2.44629 -8.16295 
9.26821 5.17418 -27.4049 
5.0268 13.9463 -34.3484 
39.2791 -17.4777 -63.7112 
-79.7505 31.054 68.24 
-0.123077 -10.1198 -43.8125 
51.5215 -38.0204 -32.0538 
-3.23822 -4.05547 0.468394 
-19.8365 -2.14626 -0.384901 
-18.3013 -1.58851 -12.5362 
12.5814 -3.20706 -1.13551 
-0.0922306 -4.58588 -3.94605 
58.8887 16.3583 -41.1054 
-25.7353 -1.5457 -6.71703 
20.1404 10.5704 -19.549 
3.36342 1.2672 1.88954 
-10.0084 17.5886 -60.5825 
-2.52316 -12.0524 -17.5996 
-1.12253 0.895805 1.6681 
12.1623 -11.3858 -29.2256 
-6.99632 -4.93319 -8.93878 
4.11535 6.36507 -14.4659 
6.17617 6.44464 -3.9015 
72.1037 24.4274 -35.9589 
-0.944437 -6.18 -81.3141 
0.809704 -0.204979 3.30238 
-2.57408 13.4938 -31.7256 
34.5541 -14.9179 -29.9121 
0.597158 1.33316 -2.98228 
0.82506 -3.9051 -7.24694 
-0.050417 1.12893 -3.6993 
45.8961 13.7101 -26.3133 
7.20249 0.516837 -19.4335 
-26.0721 -13.5794 -12.2452 
0.677472 5.39806 -13.9227 
5.06233 -0.54239 -14.4195 
1.34243 9.69326 12.5775 
6.39345 -8.64586 -15.2033 
3.10971 -0.282246 1.01574 
-0.155259 0.0645736 3.16155 
-1.22748 1.29544 11.0392 
0.578063 0.260023 -6.51137 
-7.1751 12.9828 -1.8751 
318.106 -61.7919 -51.7108 
-88.5813 57.9032 -15.4139 
-18.02 75.3373 9.57975 
52.4277 152.068 22.0413 
116.418 -6.73941 14.2389 
-1.9481 0.162776 2.95419 
63.3311 -5.07294 17.0044 
-45.3068 -8.87572 26.4797 
24.8196 28.067 56.2329 
-46.2839 -0.713537 1.14385 
-86.9713 -7.26752 47.1053 
2.3863 -2.43893 -0.13686 
-19.3886 17.9629 33.6762 
-3.01394 6.33959 3.64042 
40.4268 46.5592 333.595 
-0.616203 10.22 13.0178 
-21.0312 28.1125 -27.7933 
0.0770392 1.07907 3.50829 
0.702243 -44.224 6.05672 
-7.5069 -11.9686 2.03034 
1.45849 -50.4872 36.712 
7.09043 0.950894 -8.86966 
-42.1229 18.9808 -50.6156 
-1.56088 -0.112095 10.0827 
4.46775 -1.42008 53.973 
-59.049 -16.383 132.438 
-2.32746 28.8763 83.4203 
-4.47965 -6.71874 37.8966 
4.48137 -5.04143 18.7299 
9.74487e-09 -5.08653e-09 13.6117 
-5.74204 -3.44945 22.9312 
-15.0479 1.92058 95.1051 
-43.8373 34.3367 84.1063 
17.9052 1.33982 88.6574 
7.03427 5.61 28.9037 
-0.203919 -0.91353 22.2766 
-0.412069 -1.15114 13.6788 
-3.07137e-07 -2.34167e-06 13.6117 
1.2158 5.24719 22.7634 
3.04502 -4.88248 344.727 
-4.51452 3.30914 23.9009 
-1.11494 -1.46627 -19.9291 
1.24106 0.684488 13.3632 
0.916622 -0.928535 21.8458 
-20.6862 -19.4314 134.2 
25.4036 13.5379 40.135 
-1.22571e-16 1.45795e-14 13.6117 
9.93562 5.89912 44.4003 
-5.36902e-08 -9.74046e-09 13.6117 
-18.9104 63.1241 164.437 
1.37232 -12.1353 53.3023 
-0.389293 3.28348 9.88424 
3.31604 5.50707 36.5902 
-8.73362 -1.9781 28.3124 
-0.249381 1.40933 10.1506 
0.968803 2.10915 12.4314 
0.241593 -4.92456 11.1977 
-3.25584 0.0678912 7.43596 
-0.0681602 -2.20623 13.0389 
-0.000456055 1.83448e-05 13.6199 
0.216001 23.692 41.5791 
-0.975353 2.8197 12.8168 
3.7685 -1.59521 10.9046 
-125.135 18.753 137.707 
-1.80299 1.84638 10.536 
4.36526e-14 -3.78936e-14 13.6117 
-36.9388 -25.9944 -28.4011 
VECTORS moment double
0 0 0 
0 0 0 
0 0 0 
0 0 0 
0 0 0 
0 0 0 
0 0 0 
0 0 0 
0 0 0 
0 0 0 
0 0 0 
0 0 0 
0 0 0 
0 0 0 
0 0 0 
0 0 0 
0 0 0 
0 0 0 
0 0 0 
0 0 0 
0 0 0 
0 0 0 
0 0 0 
0 0 0 
0 0 0 
0 0 0 
0 0 0 
0 0 0 
0 0 0 
0 0 0 
0 0 0 
0 0 0 
0 0 0 
0 0 0 
0 0 0 
0 0 0 
0 0 0 
0 0 0 
0 0 0 
0 0 0 
0 0 0 
0 0 0 
0 0 0 
0 0 0 
0 0 0 
0 0 0 
0 0 0 
0 0 0 
0 0 0 
0 0 0 
0 0 0 
0 0 0 
0 0 0 
0 0 0 
0 0 0 
0 0 0 
0 0 0 
0 0 0 
0 0 0 
0 0 0 
0 0 0 
0 0 0 
0 0 0 
0 0 0 
0 0 0 
0 0 0 
0 0 0 
0 0 0 
0 0 0 
0 0 0 
0 0 0 
0 0 0 
0 0 0 
0 0 0 
0 0 0 
0 0 0 
0 0 0 
0 0 0 
0 0 0 
0 0 0 
0 0 0 
0 0 0 
0 0 0 
0 0 0 
0 0 0 
0 0 0 
0 0 0 
0 0 0 
0 0 0 
0 0 0 
0 0 0 
0 0 0 
0 0 0 
0 0 0 
0 0 0 
0 0 0 
0 0 0 
0 0 0 
0 0 0 
0 0 0 
0 0 0 
0 0 0 
0 0 0 
0 0 0 
0 0 0 
0 0 0 
0 0 0 
0 0 0 
0 0 0 
0 0 0 
0 0 0 
0 0 0 
0 0 0 
0 0 0 
0 0 0 
0 0 0 
0 0 0 
0 0 0 
0 0 0 
0 0 0 
0 0 0 
0 0 0 
0 0 0 
0 0 0 
0 0 0 
0 0 0 
0 0 0 
0 0 0 
0 0 0 
0 0 0 
0 0 0 
0 0 0 
0 0 0 
0 0 0 
0 0 0 
0 0 0 
0 0 0 
0 0 0 
0 0 0 
0 0 0 
0 0 0 
0 0 0 
0 0 0 
0 0 0 
0 0 0 
0 0 0 
0 0 0 
0 0 0 
0 0 0 
0 0 0 
0 0 0 
0 0 0 
0 0 0 
0 0 0 
0 0 0 
0 0 0 
0 0 0 
0 0 0 
0 0 0 
0 0 0 
0 0 0 
0 0 0 
0 0 0 
0 0 0 
0 0 0 
0 0 0 
0 0 0 
0 0 0 
0 0 0 
0 0 0 
0 0 0 
0 0 0 
0 0 0 
0 0 0 
0 0 0 
0 0 0 
0 0 0 
0 0 0 
0 0 0 
0 0 0 
0 0 0 
0 0 0 
0 0 0 
0 0 0 
0 0 0 
0 0 0 
0 0 0 
0 0 0 
0 0 0 
0 0 0 
0 0 0 
0 0 0 
0 0 0 
0 0 0 
SCALARS num_collisions int 1
LOOKUP_TABLE default
1 
1 
1 
1 
1 
1 
1 
1 
1 
1 
1 
1 
1 
1 
1 
1 
1 
1 
1 
1 
1 
1 
1 
1 
1 
1 
1 
1 
1 
1 
1 
1 
1 
1 
1 
1 
1 
1 
1 
1 
1 
1 
1 
1 
1 
1 
1 
1 
1 
1 
1 
1 
1 
1 
1 
1 
1 
1 
1 
1 
1 
1 
1 
1 
1 
1 
1 
1 
1 
1 
1 
1 
1 
1 
1 
1 
1 
1 
1 
1 
1 
1 
1 
1 
1 
1 
1 
1 
1 
1 
1 
1 
1 
1 
1 
1 
1 
1 
1 
1 
1 
1 
1 
1 
1 
1 
1 
1 
1 
1 
1 
1 
1 
1 
1 
1 
1 
1 
1 
1 
1 
1 
1 
1 
1 
1 
1 
1 
1 
1 
1 
1 
1 
1 
1 
1 
1 
1 
1 
1 
1 
1 
1 
1 
1 
1 
1 
1 
1 
1 
1 
1 
1 
1 
1 
1 
1 
1 
1 
1 
1 
1 
1 
1 
1 
1 
1 
1 
1 
1 
1 
1 
1 
1 
1 
1 
1 
1 
1 
1 
1 
1 
1 
1 
1 
1 
1 
1 
1 
1 
1 
1 
1 
1 
VECTORS pos double
-0.394868 -0.405041 -0.42387 
-0.37306 -0.000715375 -0.424567 
-0.449672 0.146381 -0.408593 
-0.421545 0.372799 -0.41869 
-0.289903 -0.427555 -0.4267 
-0.245856 0.405673 -0.431346 
-0.301722 0.362279 -0.430324 
-0.0776717 -0.376211 -0.437265 
0.217558 -0.410052 -0.423987 
0.157108 -0.21706 -0.428823 
0.195184 0.00825308 -0.424175 
0.140575 0.246086 -0.433285 
0.200838 0.201273 -0.431763 
0.443572 -0.379975 -0.40777 
0.434063 -0.327442 -0.407768 
0.297522 -0.0344829 -0.434049 
0.352599 0.0779012 -0.411429 
0.415661 0.114347 -0.421783 
-0.400721 -0.418467 -0.350978 
-0.351474 0.00387023 -0.35303 
-0.132463 0.374236 -0.403694 
-0.176552 0.406733 -0.384097 
-0.0934624 -0.359057 -0.366766 
-0.118806 -0.429363 -0.379215 
0.0617481 0.0348742 -0.132821 
0.0760669 0.286082 -0.432534 
0.136135 0.311074 -0.372082 
0.0797204 0.336975 -0.386084 
0.250474 -0.422642 -0.375773 
0.195884 -0.420432 -0.357025 
0.158157 -0.265882 -0.406368 
0.146712 -0.158534 -0.353886 
0.198202 -0.15072 -0.390437 
0.170054 0.0381489 -0.358155 
0.149398 0.126554 -0.428855 
0.248493 0.347966 -0.324066 
0.376174 -0.431799 -0.33545 
0.449956 0.185163 -0.378884 
0.416296 0.333841 -0.403403 
-0.404729 -0.432009 -0.27375 
-0.313254 0.0150036 -0.291867 
-0.43831 0.253558 -0.427568 
-0.183183 -0.401967 -0.405537 
0.0389647 -0.40082 -0.372813 
0.260977 -0.273995 0.337058 
0.186261 -0.322277 0.344967 
0.232002 -0.42788 -0.26735 
0.150922 -0.418563 -0.334254 
0.149934 0.0573269 -0.292277 
0.291974 0.0607121 -0.411231 
0.0979256 0.126365 -0.347574 
0.360464 -0.18725 -0.406229 
0.414286 -0.205564 -0.415207 
0.443458 0.240841 -0.413154 
0.44942 0.227016 -0.314579 
-0.391969 -0.452853 -0.196265 
-0.338765 0.0222944 -0.240175 
-0.246455 0.0529377 -0.255711 
-0.363782 0.116882 -0.312165 
-0.209223 -0.421277 -0.391575 
-0.155128 -0.415482 -0.348505 
-0.325747 0.406373 -0.378295 
0.0640692 -0.446337 -0.30428 
0.111907 0.435165 -0.431981 
0.253031 -0.399685 -0.200946 
0.110814 -0.303555 -0.367903 
0.215385 -0.28936 -0.354593 
0.237971 0.197688 -0.403982 
0.29764 0.184401 -0.42693 
0.308728 -0.306984 -0.319988 
0.377397 -0.270651 -0.306368 
0.355097 -0.364661 -0.305353 
0.355984 0.188933 -0.360748 
0.329367 0.259333 -0.403868 
0.40657 0.328799 -0.345941 
0.430679 0.41256 -0.354224 
-0.391105 -0.010096 -0.138329 
-0.414209 -0.0210434 -0.174603 
-0.276421 -0.395399 -0.328279 
0.046494 -0.346933 -0.313781 
0.219743 -0.405658 -0.145971 
0.0518966 0.111573 -0.25724 
0.102899 0.0479215 -0.183916 
0.234251 0.191147 -0.351474 
0.22902 0.270598 -0.341748 
0.423547 -0.216783 -0.338884 
0.411184 0.427911 -0.306995 
-0.340569 0.440008 -0.295869 
-0.270669 0.42023 -0.361152 
-0.0876905 -0.375743 -0.309365 
0.0407024 0.149765 -0.252148 
0.239889 -0.0975186 -0.391658 
0.208535 0.352911 -0.354313 
0.21877 0.318545 -0.285234 
0.183416 0.412691 -0.35486 
0.35094 -0.127035 -0.340944 
0.445472 0.400652 -0.242285 
-0.0977098 -0.392683 -0.23988 
-0.108909 -0.365799 -0.20131 
-0.29027 0.381662 0.102579 
-0.168954 0.422737 -0.360523 
-0.000210899 0.214033 -0.175759 
0.124925 -0.122749 -0.30827 
0.192708 0.211684 -0.278448 
0.279839 0.210233 -0.313586 
0.227461 0.173689 -0.277479 
0.357342 0.271114 -0.304717 
0.405187 0.376879 -0.174382 
-0.388169 -0.000388322 -0.0382245 
-0.235226 -0.394555 -0.252096 
-0.173058 0.388832 -0.327469 
0.0106337 -0.416206 -0.241848 
0.224658 0.167839 -0.199849 
0.439827 -0.284628 -0.228723 
0.419493 -0.152088 -0.225794 
0.361422 0.36154 -0.158663 
-0.380686 0.449252 -0.207118 
0.0369716 -0.23386 0.195003 
-0.169502 0.367917 -0.238838 
-0.0111068 -0.396671 -0.169557 
0.33843 -0.0835886 0.0950129 
0.189462 0.23473 -0.216248 
-0.013853 -0.38353 -0.0866972 
0.423112 -0.184081 -0.000320859 
0.409939 -0.173362 -0.0535637 
0.405673 -0.174105 -0.142551 
-0.41344 0.0529203 0.0143025 
-0.141622 -0.421568 0.261325 
-0.0552418 -0.451886 0.248876 
-0.22502 -0.361457 0.287669 
-0.0175886 0.229205 0.415275 
-0.500011 -0.0190825 -0.205068 
-0.5 0.380454 -0.331365 
-0.5 -0.171633 0.183812 
0.500015 0.376701 -0.16747 
0.5 0.232963 -0.364221 
0.5 -0.208003 -0.380359 
0.50003 0.397664 -0.276599 
0.399887 -0.5 -0.375522 
0.0502748 -0.500005 -0.351279 
0.291009 -0.5 -0.365381 
-0.470193 -0.5 -0.0845427 
-0.152095 -0.500003 -0.376079 
-0.362936 -0.500008 -0.168669 
0.0964005 -0.5 0.324724 
0.39568 -0.5 0.415645 
0.156114 0.5 -0.450013 
0.41021 0.500012 -0.378046 
-0.11506 0.0827907 -0.500001 
0.197555 -0.00820699 -0.500018 
0.0780258 -0.100758 -0.500002 
-0.188788 -0.389387 -0.500014 
-0.120206 0.416717 -0.500033 
-0.377009 -0.0268358 -0.500022 
-0.388197 -0.389569 -0.500012 
0.426595 0.267549 -0.500006 
-0.28153 0.255494 -0.5 
0.338335 -0.010414 -0.5 
0.274792 0.190488 -0.500021 
-0.053632 -0.399225 -0.500028 
0.378538 -0.203125 -0.5 
-0.449525 0.345683 -0.5 
0.449998 -0.00740988 -0.5 
0.375544 0.445374 -0.500003 
-0.193941 -0.0107072 -0.5 
0.44997 -0.405937 -0.5 
0.382413 -0.102005 -0.5 
-0.416049 0.236483 -0.500005 
-0.0554744 -0.0866137 -0.5 
-0.179631 0.168938 -0.500003 
-0.280844 -0.425107 -0.500005 
0.226212 -0.398544 -0.500035 
0.015345 0.257235 -0.500011 
0.271497 -0.192943 -0.5 
0.175108 0.197406 -0.500009 
-0.293065 -0.209111 -0.5 
-0.259935 0.356608 -0.500032 
0.158022 -0.199002 -0.500011 
0.430952 -0.300871 -0.5 
0.381414 0.0913308 -0.5 
0.156114 0.450004 -0.5 
0.294698 0.0531134 -0.500002 
-0.316142 0.148464 -0.500003 
0.249446 0.361466 -0.500003 
0.0451201 0.437483 -0.500001 
-0.0310866 0.335872 -0.500003 
-0.449986 -0.203523 -0.5 
-0.449344 0.118378 -0.5 
0.0381201 0.164158 -0.500003 
-0.0945807 0.153525 -0.500003 
0.209042 0.144549 -0.500042 
0.0412813 0.0434191 -0.500003 
-0.137376 -0.14725 -0.5 
-0.37273 -0.373085 0.500043 
VECTORS dir_n double
0.105391 0.0902098 -0.990331 
-0.0922965 0.0224425 -0.995479 
0.00655452 -0.560109 -0.828393 
-0.559666 -0.542377 -0.626579 
0.657835 -0.193346 -0.727922 
-0.141702 -0.579989 -0.802205 
0.585649 0.0751674 -0.807072 
0.361153 -0.208017 -0.909009 
0.0582464 -0.00341266 -0.998296 
0.0762607 0.165364 -0.98328 
-0.0506017 -0.0476167 -0.997583 
0.362036 -0.834459 -0.415462 
-0.821754 0.309788 -0.47828 
0.127976 -0.519303 -0.844954 
0.0622274 -0.531424 0.844818 
0.816285 0.481405 -0.319262 
0.57633 0.268603 -0.771814 
0.684963 0.460335 0.564728 
0.150281 0.333877 -0.93056 
-0.4876 -0.0911806 -0.868293 
-0.364677 0.526836 -0.767759 
0.753188 -0.433917 -0.494393 
0.0981249 -0.612903 -0.784041 
0.709328 0.703096 0.0501043 
-0.957976 -0.127998 0.256708 
-0.830213 -0.536937 -0.149816 
0.820381 0.253226 0.51269 
0.550679 -0.810183 -0.200886 
-0.810736 0.54727 -0.207853 
0.291329 0.143446 -0.945807 
0.0246241 0.916469 -0.399347 
-0.493324 0.543961 0.678777 
-0.843207 -0.509922 -0.170239 
-0.101431 0.354288 0.929619 
0.673713 -0.192024 -0.713609 
0.782376 0.597626 0.175302 
-0.474268 0.364328 0.801458 
-0.000965235 -0.956029 -0.293272 
-0.114554 -0.190354 -0.975009 
0.280854 0.287675 -0.915622 
-0.302675 -0.226044 -0.925901 
-0.0329478 0.390715 0.919922 
-0.154934 0.591273 -0.791449 
0.802593 0.389712 0.451629 
-0.848641 -0.397341 -0.349182 
0.647017 0.569126 -0.507409 
-0.488377 0.160595 -0.857728 
0.95885 0.197145 -0.204303 
0.332105 -0.30224 -0.893508 
-0.636209 -0.0751903 -0.767844 
0.35667 0.19559 -0.913527 
0.361529 -0.317534 -0.876624 
-0.715211 0.0488056 -0.697202 
0.130951 -0.157566 0.978787 
-0.0116829 -0.118953 0.992831 
-0.10797 0.243819 -0.963792 
0.420028 -0.0294337 -0.907033 
-0.553677 -0.807726 -0.202537 
0.386431 0.605205 0.695987 
0.917057 0.0670201 -0.393084 
-0.154892 -0.476647 -0.865341 
-0.258461 -0.473184 -0.842196 
0.770028 -0.251272 -0.586446 
-0.884208 -0.2968 0.360675 
-0.349508 -0.414973 -0.840025 
0.551197 0.833869 0.0290553 
-0.905199 0.106621 -0.411396 
-0.197095 -0.495366 -0.846029 
-0.611788 -0.509396 -0.605171 
0.98013 -0.175102 0.0931907 
0.393295 0.901777 0.179211 
-0.0527155 -0.978476 0.199512 
0.555212 -0.418778 0.718585 
0.0227937 0.989328 -0.143911 
0.156419 0.59446 -0.788765 
0.144493 -0.899904 -0.411453 
0.245021 -0.291672 -0.924604 
0.987487 0.0803862 0.135677 