# vtk DataFile Version 2.0
Generated by NetDEM
ASCII 
DATASET POLYDATA
POINTS 860 double
-0.418777 -0.406971 -0.463731 
-0.429198 -0.407522 -0.392773 
-0.446677 -0.204083 -0.450025 
-0.449658 -0.253096 -0.362919 
-0.446677 -0.204083 -0.450025 
-0.423879 -0.126137 -0.397481 
-0.412576 -0.00611987 -0.464841 
-0.409333 -0.0178978 -0.385384 
-0.449316 0.114424 -0.450014 
-0.449313 0.176739 -0.371808 
-0.449316 0.114424 -0.450014 
-0.372068 0.0691844 -0.405453 
-0.449177 0.349828 -0.450041 
-0.4413 0.276141 -0.382923 
-0.449177 0.349828 -0.450041 
-0.450007 0.383471 -0.355902 
-0.271033 -0.429621 -0.459157 
-0.334074 -0.407589 -0.404576 
-0.271033 -0.429621 -0.459157 
-0.264208 -0.438931 -0.363296 
-0.307609 -0.210896 -0.450051 
-0.320545 -0.204487 -0.351131 
-0.307609 -0.210896 -0.450051 
-0.232381 -0.160112 -0.408103 
-0.195203 -0.00927227 -0.450037 
-0.129654 -0.0555304 -0.390371 
-0.195203 -0.00927227 -0.450037 
-0.240658 -0.0047059 -0.351647 
-0.173182 0.172097 -0.463821 
-0.177418 0.0789662 -0.450338 
-0.173182 0.172097 -0.463821 
-0.238333 0.184413 -0.379705 
-0.253236 0.366335 -0.463179 
-0.230732 0.326781 -0.394516 
-0.0560171 -0.396446 -0.460742 
-0.0852775 -0.388801 -0.395704 
-0.0558685 -0.0871162 -0.450042 
0.0510057 -0.092341 -0.449986 
-0.0558685 -0.0871162 -0.450042 
-0.00696408 -0.0230822 -0.39302 
0.0362024 0.179005 -0.452305 
0.111759 0.137711 -0.398007 
-0.0308185 0.319199 -0.441407 
0.02644 0.259614 -0.449927 
0.193185 -0.40135 -0.46285 
0.203943 -0.413672 -0.390103 
0.168788 -0.210238 -0.463089 
0.165558 -0.205475 -0.389796 
0.173071 -0.00754849 -0.462761 
0.174748 0.0135165 -0.385383 
0.160509 0.209305 -0.46505 
0.11894 0.301393 -0.425809 
0.301316 0.403584 -0.414675 
0.286582 0.374035 -0.320405 
0.301316 0.403584 -0.414675 
0.371276 0.438997 -0.465081 
0.301316 0.403584 -0.414675 
0.330664 0.308034 -0.412676 
0.450018 -0.407744 -0.450039 
0.394733 -0.45002 -0.378284 
0.430739 -0.303233 -0.450031 
0.43658 -0.356143 -0.365406 
0.380431 0.091011 -0.450028 
0.450004 0.139452 -0.39702 
0.380431 0.091011 -0.450028 
0.32299 0.0637541 -0.372855 
-0.429198 -0.407522 -0.392773 
-0.434696 -0.44028 -0.326222 
-0.449658 -0.253096 -0.362919 
-0.424135 -0.304999 -0.281346 
-0.409333 -0.0178978 -0.385384 
-0.315627 -0.0230895 -0.359511 
-0.409333 -0.0178978 -0.385384 
-0.450839 -0.0306935 -0.316466 
-0.232381 -0.160112 -0.408103 
-0.17762 -0.171615 -0.325253 
-0.154231 -0.098582 -0.202983 
-0.236195 -0.0631981 -0.157945 
-0.154231 -0.098582 -0.202983 
-0.165822 -0.071737 -0.298593 
-0.146073 0.402602 -0.447125 
-0.144212 0.44198 -0.335411 
-0.146073 0.402602 -0.447125 
-0.111381 0.313777 -0.398839 
-0.0852775 -0.388801 -0.395704 
-0.00254359 -0.338539 -0.345586 
-0.0852775 -0.388801 -0.395704 
-0.160104 -0.376759 -0.333557 
0.316442 -0.238278 -0.10664 
0.296925 -0.321488 -0.0547331 
0.316442 -0.238278 -0.10664 
0.298104 -0.162862 -0.172985 
0.316442 -0.238278 -0.10664 
0.356388 -0.212894 -0.0185707 
-0.0318318 -0.0146168 -0.302293 
-0.00696408 -0.0230822 -0.39302 
-0.0318318 -0.0146168 -0.302293 
0.00367328 -0.0121403 -0.208854 
0.02644 0.259614 -0.449927 
0.0861529 0.236243 -0.366306 
0.02644 0.259614 -0.449927 
-0.0370808 0.222845 -0.385561 
0.11894 0.301393 -0.425809 
0.0661887 0.396848 -0.408588 
0.203943 -0.413672 -0.390103 
0.202705 -0.435822 -0.31912 
0.165558 -0.205475 -0.389796 
0.214461 -0.198587 -0.306701 
0.165558 -0.205475 -0.389796 
0.158289 -0.313735 -0.385127 
0.174748 0.0135165 -0.385383 
0.162089 0.055911 -0.328883 
0.196092 0.112564 -0.456127 
0.273505 0.066227 -0.443813 
0.196092 0.112564 -0.456127 
0.2613 0.176011 -0.443685 
0.196092 0.112564 -0.456127 
0.111759 0.137711 -0.398007 
0.286582 0.374035 -0.320405 
0.199681 0.308839 -0.334771 
0.286582 0.374035 -0.320405 
0.249391 0.449992 -0.267078 
0.394733 -0.45002 -0.378284 
0.34327 -0.411058 -0.301954 
0.43658 -0.356143 -0.365406 
0.45001 -0.310824 -0.277306 
0.43658 -0.356143 -0.365406 
0.355125 -0.314407 -0.325153 
0.450004 0.139452 -0.39702 
0.449984 0.0544208 -0.34441 
0.424998 0.339857 -0.456374 
0.437643 0.255002 -0.460028 
0.424998 0.339857 -0.456374 
0.431658 0.367695 -0.376045 
-0.434696 -0.44028 -0.326222 
-0.434417 -0.452821 -0.243849 
-0.320545 -0.204487 -0.351131 
-0.319801 -0.140372 -0.274421 
-0.315627 -0.0230895 -0.359511 
-0.295952 -0.0413413 -0.268338 
-0.291038 0.266929 -0.450013 
-0.331091 0.232693 -0.36503 
-0.4413 0.276141 -0.382923 
-0.422414 0.260256 -0.286033 
-0.4413 0.276141 -0.382923 
-0.423589 0.242328 -0.463883 
-0.181308 -0.375135 -0.451267 
-0.158679 -0.448103 -0.39115 
-0.177418 0.0789662 -0.450338 
-0.274922 0.0927897 -0.40337 
-0.34813 0.334771 -0.332244 
-0.357485 0.373959 -0.407353 
0.0437094 -0.438274 -0.449738 
0.0951581 -0.45238 -0.35544 
0.0437094 -0.438274 -0.449738 
0.0101807 -0.434162 -0.354564 
0.208303 -0.284613 -0.107225 
0.297575 -0.326884 -0.147176 
0.208303 -0.284613 -0.107225 
0.198409 -0.24357 -0.0184154 
0.208303 -0.284613 -0.107225 
0.134441 -0.219063 -0.122884 
0.209691 0.0679012 -0.189799 
0.203427 0.139547 -0.255179 
0.209691 0.0679012 -0.189799 
0.185182 0.045507 -0.10396 
0.254485 0.331725 -0.464021 
0.205271 0.384432 -0.394209 
0.202705 -0.435822 -0.31912 
0.177925 -0.426244 -0.220067 
0.202705 -0.435822 -0.31912 
0.262992 -0.446763 -0.240329 
0.202705 -0.435822 -0.31912 
0.0951581 -0.45238 -0.35544 
0.0510057 -0.092341 -0.449986 
0.134316 -0.0993942 -0.398366 
0.0510057 -0.092341 -0.449986 
0.0183659 -0.119453 -0.345809 
0.162089 0.055911 -0.328883 
0.1258 0.0632129 -0.266121 
0.273505 0.066227 -0.443813 
0.32299 0.0637541 -0.372855 
0.111759 0.137711 -0.398007 
0.0499935 0.118769 -0.326192 
0.378829 -0.217398 -0.450076 
0.450026 -0.208091 -0.380527 
0.378829 -0.217398 -0.450076 
0.336487 -0.176749 -0.369144 
0.3815 -0.108084 -0.450047 
0.347857 -0.0760886 -0.361504 
0.3815 -0.108084 -0.450047 
0.45 -0.106345 -0.377262 
0.450009 0.234093 -0.364719 
0.448671 0.219191 -0.265876 
0.450009 0.234093 -0.364719 
0.437643 0.255002 -0.460028 
-0.434417 -0.452821 -0.243849 
-0.390121 -0.438236 -0.168451 
-0.17762 -0.171615 -0.325253 
-0.11773 -0.204919 -0.25249 
-0.240658 -0.0047059 -0.351647 
-0.193257 0.0776988 -0.338189 
-0.274922 0.0927897 -0.40337 
-0.372068 0.0691844 -0.405453 
-0.359943 0.141123 -0.337059 
-0.331091 0.232693 -0.36503 
-0.359943 0.141123 -0.337059 
-0.372068 0.0691844 -0.405453 
-0.158679 -0.448103 -0.39115 
-0.160104 -0.376759 -0.333557 
-0.158679 -0.448103 -0.39115 
-0.264208 -0.438931 -0.363296 
-0.129654 -0.0555304 -0.390371 
-0.165822 -0.071737 -0.298593 
-0.243382 0.0473 -0.214927 
-0.162484 0.114073 -0.24572 
-0.0556085 0.126588 -0.442708 
-0.135582 0.146123 -0.394598 
-0.357485 0.373959 -0.407353 
-0.313313 0.438573 -0.346941 
0.0951581 -0.45238 -0.35544 
0.0822867 -0.419289 -0.269215 
0.0205272 0.0475941 -0.450078 
0.0320027 0.0431621 -0.354199 
0.262992 -0.446763 -0.240329 
0.269118 -0.431739 -0.124686 
0.158289 -0.313735 -0.385127 
0.259504 -0.322436 -0.357974 
0.158289 -0.313735 -0.385127 
0.1026 -0.288045 -0.293184 
0.1258 0.0632129 -0.266121 
0.0429486 0.0713048 -0.253284 
0.1258 0.0632129 -0.266121 
0.203427 0.139547 -0.255179 
0.1258 0.0632129 -0.266121 
0.111543 -0.0216039 -0.202586 
0.2613 0.176011 -0.443685 
0.332183 0.209153 -0.397926 
0.2613 0.176011 -0.443685 
0.237802 0.2332 -0.377599 
0.355125 -0.314407 -0.325153 
0.259504 -0.322436 -0.357974 
0.355125 -0.314407 -0.325153 
0.364597 -0.296305 -0.227405 
0.45 -0.106345 -0.377262 
0.43741 -0.0371351 -0.306209 
0.45 -0.106345 -0.377262 
0.450009 -0.144657 -0.2849 
0.386095 0.166844 -0.325117 
0.332183 0.209153 -0.397926 
0.330664 0.308034 -0.412676 
0.332183 0.209153 -0.397926 
0.431658 0.367695 -0.376045 
0.399131 0.299188 -0.308381 
0.431658 0.367695 -0.376045 
0.438605 0.399515 -0.294938 
-0.390121 -0.438236 -0.168451 
-0.370176 -0.363516 -0.113834 
-0.390121 -0.438236 -0.168451 
-0.461689 -0.452388 -0.121035 
-0.295952 -0.0413413 -0.268338 
-0.353816 0.0114663 -0.229141 
-0.295952 -0.0413413 -0.268338 
-0.319801 -0.140372 -0.274421 
-0.244987 0.0309724 -0.116274 
-0.233302 0.0328776 -0.0169817 
-0.00696408 -0.0230822 -0.39302 
0.0320027 0.0431621 -0.354199 
0.356388 -0.212894 -0.0185707 
0.448503 -0.196673 -0.0539421 
0.356388 -0.212894 -0.0185707 
0.336635 -0.270498 0.0607267 
0.0183659 -0.119453 -0.345809 
0.0137077 -0.103963 -0.247142 
0.0320027 0.0431621 -0.354199 
0.0499935 0.118769 -0.326192 
-0.00242428 0.437833 -0.464794 
-0.0063371 0.413723 -0.368699 
0.302082 -0.387558 -0.206765 
0.34327 -0.411058 -0.301954 
0.302082 -0.387558 -0.206765 
0.297575 -0.326884 -0.147176 
0.259504 -0.322436 -0.357974 
0.255883 -0.296713 -0.288889 
0.0429486 0.0713048 -0.253284 
0.0499935 0.118769 -0.326192 
0.0429486 0.0713048 -0.253284 
0.00289546 0.112616 -0.183992 
0.237802 0.2332 -0.377599 
0.227616 0.183344 -0.317618 
0.349266 0.449999 -0.261732 
0.438605 0.399515 -0.294938 
0.450026 -0.208091 -0.380527 
0.391847 -0.224478 -0.300928 
-0.461689 -0.452388 -0.121035 
-0.444037 -0.457128 0.000437614 
-0.319801 -0.140372 -0.274421 
-0.339906 -0.21851 -0.215356 
-0.450839 -0.0306935 -0.316466 
-0.448127 -0.0959677 -0.256387 
-0.313313 0.438573 -0.346941 
-0.235002 0.43977 -0.284773 
-0.313313 0.438573 -0.346941 
-0.381708 0.450002 -0.274893 
-0.160104 -0.376759 -0.333557 
-0.22071 -0.352666 -0.233935 
-0.160104 -0.376759 -0.333557 
-0.138309 -0.41434 -0.241627 
-0.0892626 -0.218489 -0.400109 
-0.0982613 -0.304837 -0.42839 
-0.183974 -0.158477 -0.128635 
-0.143559 -0.242228 -0.0918908 
-0.135582 0.146123 -0.394598 
-0.193257 0.0776988 -0.338189 
-0.230732 0.326781 -0.394516 
-0.16782 0.354118 -0.323285 
-0.230732 0.326781 -0.394516 
-0.207932 0.274452 -0.327079 
0.296925 -0.321488 -0.0547331 
0.359984 -0.396291 -0.073763 
0.450001 0.0515533 -0.153195 
0.44932 0.151298 -0.160288 
0.0499935 0.118769 -0.326192 
0.0230596 0.193914 -0.279669 
-0.111381 0.313777 -0.398839 
-0.107771 0.276404 -0.316755 
0.23879 -0.142432 -0.387984 
0.250631 -0.0669838 -0.450013 
0.23879 -0.142432 -0.387984 
[...]
POINT_DATA 860
SCALARS id int 1
LOOKUP_TABLE default
0
25
1
26
1
152
2
27
3
28
3
103
4
54
4
104
5
30
5
105
6
51
6
31
7
81
7
77
8
58
8
128
9
134
10
35
12
66
12
108
13
69
14
38
15
40
16
41
17
42
18
39
19
44
19
24
19
98
20
45
21
46
23
48
23
172
25
50
26
226
27
52
27
127
31
76
32
57
32
162
34
184
34
139
35
160
35
130
36
136
36
192
36
111
37
108
37
312
38
269
38
63
39
89
40
65
41
216
41
91
42
67
43
68
43
93
43
69
44
143
44
194
45
120
46
195
46
95
48
148
49
74
49
99
50
75
51
126
52
102
53
154
54
179
54
109
55
80
58
78
59
84
60
85
60
185
61
240
61
465
61
161
62
193
62
417
64
144
65
140
65
90
65
85
66
166
66
112
67
92
68
172
69
138
71
121
71
146
72
171
72
96
73
273
73
74
75
100
76
251
77
203
78
103
79
154
79
103
80
130
80
105
81
162
82
208
83
133
84
129
85
165
88
113
90
215
91
116
91
256
92
117
92
193
92
142
93
123
93
118
95
116
95
270
96
222
96
196
97
123
98
123
99
173
99
149
100
101
100
125
102
177
102
126
107
407
108
113
111
246
111
346
112
186
113
138
114
189
115
120
115
240
116
241
117
138
117
238
118
168
119
149
121
170
125
150
126
401
127
176
129
282
129
204
130
205
130
230
131
135
132
361
133
203
134
209
134
153
136
265
137
248
138
163
139
158
141
147
141
146
141
166
142
292
146
170
148
272
149
174
150
350
152
311
153
158
153
253
156
190
157
309
157
328
158
183
160
210
160
206
161
341
164
188
165
190
168
218
168
198
171
297
172
197
173
198
174
224
174
298
174
199
176
277
177
301
179
201
179
329
182
309
182
334
183
208
183
213
184
259
186
312
186
331
186
336
188
288
189
239
192
217
192
271
193
268
195
220
195
270
197
272
197
297
197
223
199
318
201
354
202
257
202
253
204
254
205
225
207
336
207
390
209
234
210
235
211
481
212
287
212
238
215
290
216
341
217
266
217
396
217
242
218
243
219
318
220
245
221
296
222
347
224
249
225
300
227
228
227
328
230
280
231
337
233
388
233
253
234
308
235
260
235
281
237
386
238
337
243
394
244
394
244
319
244
299
245
265
246
371
246
296
247
367
247
397
248
348
248
373
249
274
259
333
259
284
260
285
261
320
261
445
262
344
262
289
264
289
265
320
268
368
268
293
273
348
273
298
274
324
276
306
276
361
277
375
278
301
280
305
285
340
286
359
289
314
292
317
293
343
293
368
298
398
300
355
306
406
306
355
310
335
311
351
314
339
315
340
317
436
318
374
318
323
323
348
324
424
326
401
327
353
328
329
334
339
334
359
336
341
337
388
337
432
339
364
340
465
343
362
346
395
346
446
350
400
352
433
352
354
355
380
362
468
364
389
368
393
369
464
373
422
380
430
382
407
393
468
396
465
397
398
400
425
402
452
405
461
419
444
422
423
423
448
424
449
425
475
427
457
444
469
445
470
449
499
470
495
304
0
104
0
50
0
127
0
376
0
278
0
354
0
261
1
137
1
324
1
73
1
345
1
20
1
121
1
96
1
296
1
174
1
195
1
196
1
145
1
48
1
122
1
245
2
200
2
320
2
310
2
75
2
80
2
280
2
45
2
125
2
150
2
94
3
204
3
304
3
29
3
169
3
239
3
274
3
319
3
344
3
53
4
17
4
122
4
49
4
47
4
180
4
83
4
0
4
74
4
88
4
71
4
10
4
64
4
114
4
55
4
16
4
24
4
2
4
20
4
72
4
109
4
12
4
8
4
5
4
15
4
38
4
66
4
18
4
187
4
9
4
60
4
21
4
23
4
94
4
68
4
33
4
11
4
29
4
3
4
147
4
13
4
43
4
1
4
34
4
58
4
7
4
4
4
6
4
110
4
22
4
CELL_DATA 430
VECTORS force double
12.1406 16.4948 -101.835 
-0.215432 5.01611 -14.6614 
-3.13247 -9.87868 -19.9762 
-8.98468 -45.454 80.9389 
0.357322 -2.76193 -6.69585 
-5.14388 2.15312 -5.47441 
119.42 14.1715 461.549 
29.1105 117.747 114.831 
-42.0053 -19.3548 -157.023 
-262.819 -69.1505 -137.448 
4.6909 -8.0369 -53.5809 
-19.1959 -5.90421 -29.01 
129.204 -112.786 -546.36 
199.058 -315.472 -275.278 
-8.0841 14.1815 13.0733 
215.635 -69.6879 -393.217 
1.93643 13.1919 -79.4522 
20.2399 -15.6606 -148.152 
-85.6698 -5.74431 -104.857 
-10.918 -16.0199 -48.5239 
4.83801 -14.6813 -144.874 
-100.234 118.102 -93.9104 
11.3547 8.08661 -70.8649 
-9.44954 24.8672 -64.9235 
21.554 -18.1274 -69.0004 
20.3721 -30.3202 -22.3659 
-2984.78 1072.89 3046.34 
-481.52 -1895.9 2889.24 
-1875.25 -523.281 3376.44 
41.9475 19.3598 -62.913 
22.9227 -20.3003 -113.819 
158.373 -80.1821 145.341 
103.882 -46.865 77.7636 
12.9801 16.6222 -88.7604 
-0.793076 3.58579 -4.95975 
10.6782 28.1451 -223.315 
127.745 8.21351 -154.589 
-64.6912 19.6543 -63.1237 
-2.75185 -26.888 92.9692 
-109.863 -14.5641 197.313 
0.966346 -33.0559 -38.4231 
-9.11003 -13.6392 -15.0538 
-105.269 20.5012 -1.58271 
-193.521 -168.707 -418.845 
-9.61707 -26.5188 -17.7421 
-27.2286 -3.63542 85.5124 
-11.2055 -41.462 -25.6393 
-10.2769 0.94232 2.46649 
-0.419349 34.9766 -56.7761 
261.054 -129.825 -32.1608 
220.269 -177.948 255.175 
12.9027 -25.8844 -4.4272 
11.3714 5.16495 -53.6363 
1.79554 5.21788 -55.331 
-9.33573 -7.67317 -3.83919 
23.1781 -12.6777 -57.4325 
-112.659 9.11735 -364.393 
-135.367 -154.537 -517.436 
109.693 23.495 -234.05 
932.898 -285.025 -1828.29 
467.502 -166.264 -2345.58 
33.1995 -21.2339 -55.008 
-7.53058 -44.1629 56.8371 
4.79676 -61.3623 -114.5 
-166.735 -23.637 -219.275 
1.53125 -1.28754 -44.7673 
-5.23912 -24.9455 -72.3489 
7.43448 14.3288 -67.4132 
0.904401 -49.0822 -39.0292 
-11.5947 -2.17906 225.381 
3.74397 3.86543 -12.9547 
215.155 -402.912 -1403.78 
-179.895 -50.1187 -663.762 
262.685 178.962 322.164 
2.19066 -3.68082 -1.5282 
0.807804 0.550985 2.3126 
-1.60754 -7.3562 -48.9705 
1.27933 0.443205 -5.55689 
-6.18243 7.71502 4.35101 
2.32853 9.8012 2.77717 
5.11872 -14.2366 9.36526 
5.65461 -2.43905 2.74079 
-0.613024 -1.16156 -3.32298 
-54.213 16.3738 83.9184 
0.314539 -1.02644 -6.6259 
-2.94438 1.3513 -16.4809 
12.655 1.60246 -16.9232 
222.167 -26.9903 -127.126 
198.912 51.9079 107.981 
19.8555 3.41543 -49.7716 
118.514 -44.8189 53.1389 
-17.0286 19.8012 125.622 
416.129 -113.028 -733.014 
617.037 -61.3029 -705.109 
-59.5394 4.34142 202.399 
164.075 36.5262 666.699 
6.72151 4.40476 -63.5092 
-9.168 21.2137 60.3699 
0.519189 -3.68253 -44.7733 
-59.0096 24.6793 -89.6385 
-88.2889 111.921 158.221 
11.5926 1.73328 -1.46552 
-1.16975 -1.90369 2.31239 
-0.88583 -1.26435 1.1591 
-524.761 -240.881 -445.059 
-267.896 -300.385 -320.224 
149.539 -76.9999 236.923 
1.79885 2.59302 -2.1805 
-1.0258 1.509 -3.12549 
-0.990162 2.85149 1.01655 
6.28554 -6.2939 -49.4967 
-2.32571 -24.1251 -64.0956 
-2.12024 0.070841 -7.69517 
-14.6664 9.53392 -4.62582 
6.91468 7.27701 -13.3864 
16.9586 -16.4965 -6.30653 
-14.7095 -17.5598 -7.14884 
1.93027 3.78464 -29.896 
143.741 6.86712 193.886 
188.734 -4.53961 701.259 
4.19412 20.5449 22.5446 
1.07849 -70.4323 -325.918 
-948.481 108.071 -268.364 
-1145.01 216.955 -245.04 
53.0534 129.226 98.4789 
-222.812 388.122 120.527 
1.65777 -1.39587 -11.1712 
0.939444 -6.55668 -39.1755 
-1.65028 -4.31318 -8.69302 
4.02699 0.868837 -23.0685 
92.5231 -43.1236 -347.324 
1.92206 11.7336 -149.043 
19.6961 -6.8216 -22.6437 
-14.1251 -40.008 7.00491 
0.0512773 1.56669 -4.20084 
1.52209 12.1313 -45.7802 
3.2402 21.0544 -81.5793 
8.80483 14.5452 59.4198 
18.9315 42.1921 63.3565 
-16.8471 11.5381 36.4081 
8.97198 -10.6958 -15.9968 
-4.57261 2.27106 9.1862 
-8.29053 7.89757 91.8463 
17.8146 -12.8146 -18.7171 
176.816 -349.279 -1231.24 
-18.8215 10.8563 -0.635138 
-324.881 352.731 376.723 
-5.04098 -13.1887 -28.3062 
-0.687496 -14.734 -7.52975 
-20.9742 5.87372 12.1356 
-4.18244 -0.895163 -2.70538 
0.85186 2.59916 2.1713 
-46.2825 -3.21221 34.6388 
120.662 94.2171 284.777 
-0.476146 -2.90531 -1.58469 
-8.72563 23.0462 -7.89947 
3.87785 2.04235 -5.07193 
-5.6446 -3.06832 -27.97 
-0.729234 17.4374 -33.888 
-10.1501 23.8977 -5.32639 
1.36187 -2.53293 0.646311 
-3.22842 -21.6107 -69.1052 
-7.61141 63.3173 -26.1868 
339.576 -27.8228 67.6918 
478.673 -517.56 -222.593 
413.368 214.51 211.693 
-0.184267 6.6889 -25.8226 
-538.376 298.811 474.919 
20.1679 -98.8879 98.5034 
-0.949992 8.44388 -49.7357 
-9.43221 -16.4346 -31.195 
-1.71408 -2.40917 -7.07373 
-4.97217 28.0319 -2.39507 
2.81043 20.8486 -25.3265 
3.88937 -3.42471 14.3772 
-117.57 -12.4955 -37.4734 
-123.998 -15.825 -121.317 
12.6555 -20.896 4.49906 
21.0552 -13.175 -63.5446 
0.385235 -17.65 -22.9233 
8.96453 -19.7214 39.415 
12.8813 1.65619 -27.7708 
0.0800707 0.487128 -32.2216 
-293.598 -205.959 1000.67 
-237.328 303.22 744.678 
25.1336 -44.4978 -74.076 
-25.0289 11.2622 -74.9502 
32.9468 -11.3501 -64.2642 
14.5006 -3.75502 -39.2924 
3.2928 19.1568 -8.56685 
-3.00976 -1.07514 -2.08089 
0.083511 10.1284 -34.3456 
-109.903 140.309 91.77 
408.007 -773.3 848.609 
228.805 -262.547 1629.3 
-6.75342 8.97849 -5.37424 
-36.7954 1.13086 -14.8392 
7.89078 14.2755 -0.245461 
-0.624496 22.2216 -4.8874 
-0.231581 0.132266 -37.8609 
7.61513 20.4535 -40.3818 
7.31316 37.1968 2.89166 
-37.1535 67.5581 4.97036 
9.61897 -0.595653 -17.7896 
30.9885 -140.363 -136.47 
72.9527 -17.1232 -107.46 
-32.6794 -6.61514 -26.7212 
-7.51187 -3.81514 -25.8582 
71.9779 10.5366 -113.149 
60.6167 -16.1082 -229.042 
5.05184 -70.4809 53.0697 
-11.8742 -24.0879 -13.7886 
21.2774 -21.2956 27.7061 
-1.82749 0.0582884 -0.781975 
266.192 83.4531 -413.197 
0.592059 0.136098 -0.93306 
-4.25059 -0.210598 2.99451 
-0.896412 3.98655 -1.17035 
22.104 -5.49926 -71.594 
-9.76656 2.04443 14.4916 
24.6859 16.2121 -4.36891 
-3.79137 5.71761 -22.0932 
-3.52281 0.435819 -42.0003 
-5.71231 -1.86117 -3.91193 
0.18196 -1.99691 -3.89584 
-2.84269 5.58054 9.02023 
-0.297298 -0.845338 -3.99101 
26.101 0.493625 -24.8206 
-46.3843 20.3466 58.21 
-29.7566 21.1533 21.3904 
-45.0079 34.7141 45.1951 
340.742 -218.01 -657.436 
-1.21321 0.975369 0.860884 
6.65539 -3.23931 -49.183 
-13.2238 -10.8623 -11.0375 
3.86317 -4.89992 -17.5846 
6.52268 -2.65853 -27.3234 
-17.5756 3.71615 -74.2478 
-32.4743 30.0784 -117.786 
-199.297 14.7647 -295.028 
13.7088 -8.13491 -137.557 
-0.148416 1.59503 4.2239 
-5.05314 5.87887 -4.67506 
4.71365 -10.137 13.2439 
-1.71917 3.63081 -10.7362 
-8.61632 4.26103 -26.888 
2.48131 -2.90628 -5.89735 
0.360393 2.74376 -3.04139 
8.64195 -0.509309 -19.8037 
-68.6463 183.677 135.632 
-6.67172 111.097 156.223 
-15.4455 9.15441 14.6738 
17.0077 89.33 28.3454 
4.43424 1.42804 -38.2071 
0.579595 6.02773 -34.049 
-6.08645 -26.8678 49.0536 
3.24628 2.63429 -0.611687 
-6.55391 -7.24349 7.33534 
-1.4075 -4.51554 8.33708 
-1.77347 1.32718 -4.37015 
-0.346528 -2.25184 -13.3446 
-3.39285 4.92836 -7.28512 
5.20249 0.769372 -11.8152 
-9.65372 5.38168 -15.2006 
17.2659 8.03972 30.8942 
20.2029 3.15341 -48.4278 
-21.6682 -7.59681 8.15302 
16.684 1.37153 -3.96612 
-7.99901 4.23301 -7.94297 
-11.5765 -6.62272 -29.6366 
2.3016 -7.41589 -7.29981 
-8.71972 -5.97393 -33.2796 
7.87455 5.87647 -19.1349 
2.87168 -9.04481 -33.644 
-6.88218 17.5026 -40.6916 
4.46118 -23.5964 -69.7454 
2.37846 -4.80205 13.2788 
-1.36427 9.84598 -13.0598 
-187.223 56.0661 74.0717 
35.809 -68.7333 -127.489 
-21.0956 0.682277 -5.77907 
-0.507844 -0.49784 5.54879 
7.1604 2.30482 -15.5982 
2.33602 3.07256 -11.8883 
-1.49714 4.55094 -30.6473 
-3.69686 -4.42531 -9.44638 
5.79776 12.1137 -28.9396 
-19.0923 -12.0026 -176.814 
4.80934 -75.8183 -42.5322 
7.06067 49.4432 -14.9957 
30.6743 -70.5523 -26.2734 
-0.210305 0.575403 -0.416078 
14.4849 -7.19549 -16.5974 
8.6422 -1.01826 12.1684 
1.55339 5.51705 -1.89765 
-0.920485 0.803089 -3.49182 
-1.24313 0.691506 -1.7078 
-3.02157 0.708557 5.62409 
22.8635 19.4048 -44.0463 
-0.101131 0.635988 -0.43012 
0.0731554 1.48768 -5.11845 
-22.894 441.351 873.38 
-27.286 3.48692 -13.0731 
-0.0819983 1.73719 -11.5489 
-36.0369 11.2837 13.6802 
6.03955 -4.1298 2.99685 
-1.59525 4.05224 -5.62275 
-10.4893 1.4228 -33.8895 
6.99732 -14.3573 51.039 
4.39209 6.60988 -17.5217 
0.910904 8.47141 -11.783 
-0.0473535 0.278125 -6.73414 
-9.51832 -9.63373 -20.8711 
9.00627 -0.162733 -6.24462 
67.5258 -1.94541 -5.13891 
-67.8636 29.0238 -352.104 
3.67952 5.46098 -8.1724 
-4.01784 -2.62945 -12.5312 
3.01223 -8.08065 -18.5951 
-0.443099 -0.227284 0.121449 
0.27033 0.321521 -3.0624 
-64.5235 14.112 -330.661 
-31.5739 13.7673 22.487 
1.33084 -5.38927 -5.71438 
16.5194 1.65225 -21.1932 
-5.59649 -11.1285 19.1286 
-2.18378 -3.84088 -10.9007 
0.449699 -2.33972 -3.93215 
-1.82043 -3.45938 -23.3069 
6.76437 19.7538 21.1854 
0.254671 -0.924661 -1.62917 
0.245981 -0.488902 -0.493255 
5.12159 0.499596 -13.5261 
2.9447 -1.09569 -0.599626 
0.327183 0.553835 0.434659 
6.54803 4.66994 -12.6187 
7.20243 -8.13898 -49.6177 
-6.10067 -6.69801 12.8642 
3.22969 -6.59677 -30.4203 
4.19868 4.47475 2.98283 
44.6226 -65.6366 13.3409 
5.88261 0.682656 -9.67409 
2.14408 -14.1624 36.1595 
-5.15973 0.455405 -0.566772 
-52.6126 60.9207 4.59128 
-84.1398 -51.4087 188.676 
-36.966 -13.1269 17.803 
-1.27539 1.83244 3.47507 
-41.1719 -3.06083 25.8724 
-26.5081 21.9471 12.9638 
0.0501203 1.56382e-05 3.86135 
-37.2628 -6.97153 -0.899614 
-351.714 -3.71009 101.434 
-756.53 173.171 439.165 
-21.4327 -24.4331 2.13837 
-7.09867 -3.13948 13.4886 
36.3216 -1.78145 -69.2958 
361.433 -207.632 427.162 
-3.5326 -0.0402288 9.74068 
-125.303 -104.758 -64.0063 
-1.78109e-06 2.90828e-12 -1.82162e-06 
16.0714 63.289 0.546946 
-14.4257 -15.1242 -9.68888 
4.40978 7.56321 6.54155 
-34.818 229.049 31.2848 
7.06852 16.6006 -9.29954 
-2.70154 -73.3813 -33.8785 
-27.7988 79.9785 112.869 
-3.12105 41.8765 7.96415 
9.45572 14.4134 19.3872 
3.22245 3.47718 16.9188 
-9.98147e-06 -0.159 -0.162141 
-1.71907 -1.67485 9.78053 
-4.46763 -4.25493 3.01338 
7.65361e-12 -6.5743e-06 -6.72401e-06 
-0.164117 1.84743 3.41568 
-28.3593 112.751 116.054 
5.29238 -20.4398 42.8441 
-12.1861 -27.5132 12.0222 
-5.30413 -12.5635 5.26498 
-2.53165 -1.96256 26.7591 
-20.1585 17.6699 83.6722 
1.79912e-06 6.28614e-12 13.6117 
5.13198 24.8203 47.2284 
-5.01816e-15 1.35833e-14 13.6117 
-0.176601 3.00506 12.5274 
5.59476 -3.62867 12.7292 
-10.7896 -16.4693 115.468 
-4.09271 13.5415 110.674 
6.62525 -3.14278 60.1132 
-45.7362 -116.925 -282.114 
-44.2468 13.4709 193.591 
28.1734 -20.9655 359.125 
35.8363 -59.0818 147.798 
13.2743 -58.3231 194.3 
11.6235 0.0157016 81.2811 
475.825 510.585 -750.423 
25.7703 -27.9157 206.395 
-4.35776 -13.1665 79.351 
170.37 38.8512 408.532 
-42.6832 86.1185 371.768 
6.36596 10.7898 62.2643 
-97.5624 40.0057 128.967 
10.0968 5.0502 -20.4803 
-6.91268 -6.80584 82.362 
-78.23 -2.84732 225.927 
-56.9307 -65.0637 0.612962 
-13.3485 24.9309 34.9617 
-1.03188e-13 -4.65844e-14 13.6117 
-2.75623 -2.38441 79.1558 
2.50061 5.28067 68.8618 
4.06817 -15.1893 56.9963 
50.0203 19.7313 157.448 
-2.13319e-05 0.160585 13.7723 
-57.2737 45.5449 71.3996 
2.0359 2.81772 13.4395 
1.53201 5.42285 47.7375 
1.66286e-11 6.64093e-06 13.6117 
2.68588 0.675974 24.4546 
-18.7328 25.5713 -4.38598 
-33.302 38.808 -48.1481 
-74.2645 -45.6719 -170.572 
2.51861 8.78938 48.7389 
-16.5285 -11.1161 75.1065 
-17.4231 20.6609 21.0015 
-99.5811 93.4466 -223.83 
22.7137 -129.622 300.785 
9.02384 8.48834 96.4929 
0.815784 -1.50725 13.2562 
-3.59419e-15 1.1077e-14 13.6117 
VECTORS moment double
0 0 0 
0 0 0 
0 0 0 
0 0 0 
0 0 0 
0 0 0 
0 0 0 
0 0 0 
0 0 0 
0 0 0 
0 0 0 
0 0 0 
0 0 0 
0 0 0 
0 0 0 
0 0 0 
0 0 0 
0 0 0 
0 0 0 
0 0 0 
0 0 0 
0 0 0 
0 0 0 
0 0 0 
0 0 0 
0 0 0 
0 0 0 
0 0 0 
0 0 0 
0 0 0 
0 0 0 
0 0 0 
0 0 0 
0 0 0 
0 0 0 
0 0 0 
0 0 0 
0 0 0 
0 0 0 
0 0 0 
0 0 0 
0 0 0 
0 0 0 
0 0 0 
0 0 0 
0 0 0 
0 0 0 
0 0 0 
0 0 0 
0 0 0 
0 0 0 
0 0 0 
0 0 0 
0 0 0 
0 0 0 
0 0 0 
0 0 0 
0 0 0 
0 0 0 
0 0 0 
0 0 0 
0 0 0 
0 0 0 
0 0 0 
0 0 0 
0 0 0 
0 0 0 
0 0 0 
0 0 0 
0 0 0 
0 0 0 
0 0 0 
0 0 0 
0 0 0 
0 0 0 
0 0 0 
0 0 0 
0 0 0 
0 0 0 
0 0 0 
0 0 0 
0 0 0 
0 0 0 
0 0 0 
0 0 0 
0 0 0 
0 0 0 
0 0 0 
0 0 0 
0 0 0 
0 0 0 
0 0 0 
0 0 0 
0 0 0 
0 0 0 
0 0 0 
0 0 0 
0 0 0 
0 0 0 
0 0 0 
0 0 0 
0 0 0 
0 0 0 
0 0 0 
0 0 0 
0 0 0 
0 0 0 
0 0 0 
0 0 0 
0 0 0 
0 0 0 
0 0 0 
0 0 0 
0 0 0 
0 0 0 
0 0 0 
0 0 0 
0 0 0 
0 0 0 
0 0 0 
0 0 0 
0 0 0 
0 0 0 
0 0 0 
0 0 0 
0 0 0 
0 0 0 
0 0 0 
0 0 0 
0 0 0 
0 0 0 
0 0 0 
0 0 0 
0 0 0 
0 0 0 
0 0 0 
0 0 0 
0 0 0 
0 0 0 
0 0 0 
0 0 0 
0 0 0 
0 0 0 
0 0 0 
0 0 0 
0 0 0 
0 0 0 
0 0 0 
0 0 0 
0 0 0 
0 0 0 
0 0 0 
0 0 0 
0 0 0 
0 0 0 
0 0 0 
0 0 0 
0 0 0 
0 0 0 
0 0 0 
0 0 0 
0 0 0 
0 0 0 
0 0 0 
0 0 0 
0 0 0 
0 0 0 
0 0 0 
0 0 0 
0 0 0 
0 0 0 
0 0 0 
0 0 0 
0 0 0 
0 0 0 
0 0 0 
0 0 0 
0 0 0 
0 0 0 
0 0 0 
0 0 0 
0 0 0 
0 0 0 
0 0 0 
0 0 0 
0 0 0 
0 0 0 
0 0 0 
0 0 0 
0 0 0 
0 0 0 
0 0 0 
0 0 0 
0 0 0 
0 0 0 
0 0 0 
0 0 0 
0 0 0 
0 0 0 
0 0 0 
0 0 0 
0 0 0 
0 0 0 
0 0 0 
0 0 0 
0 0 0 
0 0 0 
0 0 0 
0 0 0 
0 0 0 
0 0 0 
0 0 0 
0 0 0 
0 0 0 
0 0 0 
0 0 0 
0 0 0 
0 0 0 
0 0 0 
0 0 0 
0 0 0 
0 0 0 
0 0 0 
0 0 0 
0 0 0 
0 0 0 
0 0 0 
0 0 0 
0 0 0 
0 0 0 
0 0 0 
0 0 0 
0 0 0 
0 0 0 
0 0 0 
0 0 0 
0 0 0 
0 0 0 
0 0 0 
0 0 0 
0 0 0 
0 0 0 
0 0 0 
0 0 0 
0 0 0 
0 0 0 
0 0 0 
0 0 0 
0 0 0 
0 0 0 
0 0 0 
0 0 0 
0 0 0 
0 0 0 
0 0 0 
0 0 0 
0 0 0 
0 0 0 
0 0 0 
0 0 0 
0 0 0 
0 0 0 
0 0 0 
0 0 0 
0 0 0 
0 0 0 
0 0 0 
0 0 0 
0 0 0 
0 0 0 
0 0 0 
0 0 0 
0 0 0 
0 0 0 
0 0 0 
0 0 0 
0 0 0 
0 0 0 
0 0 0 
0 0 0 
0 0 0 
0 0 0 
0 0 0 
0 0 0 
0 0 0 
0 0 0 
0 0 0 
0 0 0 
0 0 0 
0 0 0 
0 0 0 
0 0 0 
0 0 0 
0 0 0 
0 0 0 
0 0 0 
0 0 0 
0 0 0 
0 0 0 
0 0 0 
0 0 0 
0 0 0 
0 0 0 
0 0 0 
0 0 0 
0 0 0 
0 0 0 
0 0 0 
0 0 0 
0 0 0 
0 0 0 
0 0 0 
0 0 0 
0 0 0 
0 0 0 
0 0 0 
0 0 0 
0 0 0 
0 0 0 
0 0 0 
0 0 0 
0 0 0 
0 0 0 
0 0 0 
0 0 0 
0 0 0 
0 0 0 
0 0 0 
0 0 0 
0 0 0 
0 0 0 
0 0 0 
0 0 0 
0 0 0 
0 0 0 
0 0 0 
0 0 0 
0 0 0 
0 0 0 
0 0 0 
0 0 0 
0 0 0 
0 0 0 
0 0 0 
0 0 0 
0 0 0 
0 0 0 
0 0 0 
0 0 0 
0 0 0 
0 0 0 
0 0 0 
0 0 0 
0 0 0 
0 0 0 
0 0 0 
0 0 0 
0 0 0 
0 0 0 
0 0 0 
0 0 0 
0 0 0 
0 0 0 
0 0 0 
0 0 0 
0 0 0 
0 0 0 
0 0 0 
0 0 0 
0 0 0 
0 0 0 
0 0 0 
0 0 0 
0 0 0 
0 0 0 
0 0 0 
0 0 0 
0 0 0 
0 0 0 
0 0 0 
0 0 0 
0 0 0 
0 0 0 
0 0 0 
0 0 0 
0 0 0 
0 0 0 
0 0 0 
0 0 0 
0 0 0 
0 0 0 
0 0 0 
0 0 0 
0 0 0 
0 0 0 
0 0 0 
0 0 0 
0 0 0 
0 0 0 
0 0 0 
0 0 0 
0 0 0 
0 0 0 
0 0 0 
0 0 0 
0 0 0 
0 0 0 
0 0 0 
0 0 0 
0 0 0 
0 0 0 
0 0 0 
0 0 0 
0 0 0 
0 0 0 
0 0 0 
0 0 0 
0 0 0 
0 0 0 
0 0 0 
0 0 0 
0 0 0 
0 0 0 
0 0 0 
0 0 0 
0 0 0 
0 0 0 
0 0 0 
0 0 0 
0 0 0 
SCALARS num_collisions int 1
LOOKUP_TABLE default
1 
1 
1 
1 
1 
1 
1 
1 
1 
1 
1 
1 
1 
1 
1 
1 
1 
1 
1 
1 
1 
1 
1 
1 
1 
1 
1 
1 
1 
1 
1 
1 
1 
1 
1 
1 
1 
1 
1 
1 
1 
1 
1 
1 
1 
1 
1 
1 
1 
1 
1 
1 
1 
1 
1 
1 
1 
1 
1 
1 
1 
1 
1 
1 
1 
1 
1 
1 
1 
1 
1 
1 
1 
1 
1 
1 
1 
1 
1 
1 
1 
1 
1 
1 
1 
1 
1 
1 
1 
1 
1 
1 
1 
1 
1 
1 
1 
1 
1 
1 
1 
1 
1 
1 
1 
1 
1 
1 
1 
1 
1 
1 
1 
1 
1 
1 
1 
1 
1 
1 
1 
1 
1 
1 
1 
1 
1 
1 
1 
1 
1 
1 
1 
1 
1 
1 
1 
1 
1 
1 
1 
1 
1 
1 
1 
1 
1 
1 
1 
1 
1 
1 
1 
1 
1 
1 
1 
1 
1 
1 
1 
1 
1 
1 
1 
1 
1 
1 
1 
1 
1 
1 
1 
1 
1 
1 
1 
1 
1 
1 
1 
1 
1 
1 
1 
1 
1 
1 
1 
1 
1 
1 
1 
1 
1 
1 
1 
1 
1 
1 
1 
1 
1 
1 
1 
1 
1 
1 
1 
1 
1 
1 
1 
1 
1 
1 
1 
1 
1 
1 
1 
1 
1 
1 
1 
1 
1 
1 
1 
1 
1 
1 
1 
1 
1 
1 
1 
1 
1 
1 
1 
1 
1 
1 
1 
1 
1 
1 
1 
1 
1 
1 
1 
1 
1 
1 
1 
1 
1 
1 
1 
1 
1 
1 
1 
1 
1 
1 
1 
1 
1 
1 
1 
1 
1 
1 
1 
1 
1 
1 
1 
1 
1 
1 
1 
1 
1 
1 
1 
1 
1 
1 
1 
1 
1 
1 
1 
1 
1 
1 
1 
1 
1 
1 
1 
1 
1 
1 
1 
1 
1 
1 
1 
1 
1 
1 
1 
1 
1 
1 
1 
1 
1 
1 
1 
1 
1 
1 
1 
1 
1 
1 
1 
1 
1 
1 
1 
1 
1 
1 
1 
1 
1 
1 
1 
1 
1 
1 
1 
1 
1 
1 
1 
1 
1 
1 
1 
1 
1 
1 
1 
1 
1 
1 
1 
1 
1 
1 
1 
1 
1 
1 
1 
1 
1 
1 
1 
1 
1 
1 
1 
1 
1 
1 
1 
1 
1 
1 
1 
1 
1 
1 
1 
1 
1 
1 
1 
1 
1 
1 
1 
1 
1 
1 
1 
1 
1 
1 
1 
1 
1 
1 
1 
1 
1 
1 
1 
1 
1 
1 
1 
1 
1 
1 
1 
1 
1 
1 
1 
1 
VECTORS pos double
-0.410357 -0.412455 -0.426329 
-0.448167 -0.228586 -0.406466 
-0.436488 -0.161831 -0.425329 
-0.387244 -0.0257165 -0.423847 
-0.449315 0.14558 -0.410911 
-0.410692 0.0918062 -0.427731 
-0.445239 0.312985 -0.416477 
-0.449592 0.366649 -0.402973 
-0.300564 -0.419113 -0.440026 
-0.263299 -0.445032 -0.409959 
-0.314077 -0.20769 -0.400592 
-0.269994 -0.185504 -0.429076 
-0.162429 -0.0324008 -0.420203 
-0.209751 -0.00771227 -0.40223 
-0.181148 0.117368 -0.466132 
-0.210769 0.186693 -0.421292 
-0.222324 0.336304 -0.445267 
-0.0779089 -0.383564 -0.43397 
-0.0061014 -0.0851299 -0.445647 
-0.0356012 -0.0515386 -0.421356 
0.0731431 0.15588 -0.424054 
-0.00427309 0.284298 -0.423934 
0.21177 -0.416674 -0.425019 
0.171998 -0.205011 -0.424929 
0.191247 0.017912 -0.424623 
0.143242 0.251747 -0.445825 
0.293954 0.388817 -0.367542 
0.33311 0.417832 -0.450547 
0.316005 0.35581 -0.413693 
0.422377 -0.428882 -0.414161 
0.433659 -0.329687 -0.407717 
0.415218 0.115232 -0.423523 
0.35171 0.0773827 -0.411442 
-0.418494 -0.425971 -0.354987 