# vtk DataFile Version 2.0
Generated by NetDEM
ASCII 
DATASET POLYDATA
POINTS 46 double
-0.418488 -0.404369 -0.463256 
-0.414289 -0.400208 -0.390551 
-0.412299 -0.00414837 -0.463811 
-0.419458 -0.00436331 -0.392274 
0.00872384 0.189809 -0.4463 
0.00111534 0.1933 -0.341107 
0.39894 0.396233 -0.442438 
0.396272 0.394127 -0.337194 
0.17351 -0.0082748 -0.461525 
0.201204 0.00683533 -0.500001 
0.174683 -0.211285 -0.463773 
0.199666 -0.186373 -0.500001 
0.00872384 0.189809 -0.4463 
-0.0112125 0.199884 -0.500006 
-0.171702 0.199755 -0.461598 
-0.195457 0.213499 -0.500003 
0.39661 -0.20339 -0.450007 
0.39661 -0.20339 -0.5 
-0.220969 -0.429301 -0.446592 
-0.203432 -0.40646 -0.500004 
0.396508 0.196508 -0.450007 
0.396508 0.196508 -0.5 
0.39894 0.396233 -0.442438 
0.390737 0.397274 -0.50001 
-0.418488 -0.404369 -0.463256 
-0.404389 -0.401111 -0.500007 
0.396488 -0.00351175 -0.450007 
0.396488 -0.00351175 -0.5 
-0.403333 -0.203333 -0.450007 
-0.403333 -0.203333 -0.5 
-0.40295 0.19705 -0.450007 
-0.40295 0.19705 -0.5 
-0.402763 0.397237 -0.450007 
-0.402763 0.397237 -0.5 
-0.203538 -0.203538 -0.450007 
-0.203538 -0.203538 -0.5 
-0.203218 -0.00321788 -0.450007 
-0.203218 -0.00321788 -0.5 
-0.00366947 -0.203669 -0.450007 
-0.00366947 -0.203669 -0.5 
-0.00360232 -0.00360232 -0.450007 
-0.00360232 -0.00360232 -0.5 
0.196913 0.396913 -0.450007 
0.196913 0.396913 -0.5 
0.396713 -0.403287 -0.450007 
0.396713 -0.403287 -0.5 
LINES 23 69
2 0 1
2 2 3
2 4 5
2 6 7
2 8 9
2 10 11
2 12 13
2 14 15
2 16 17
2 18 19
2 20 21
2 22 23
2 24 25
2 26 27
2 28 29
2 30 31
2 32 33
2 34 35
2 36 37
2 38 39
2 40 41
2 42 43
2 44 45
POINT_DATA 46
SCALARS id int 1
LOOKUP_TABLE default
0
25
2
27
13
38
24
49
17
4
16
4
13
4
8
4
21
4
5
4
23
4
24
4
0
4
22
4
1
4
3
4
4
4
6
4
7
4
11
4
12
4
19
4
20
4
CELL_DATA 23
VECTORS force double
-0.488186 0.80148 26.5018 
100.69 22.4771 -458.452 
-3.51321 1.2661 -18.1719 
-0.426698 0.202607 -4.06291 
33.725 24.2557 -67.8776 
-1.92401 -2.42304 4.55227 
2.92867 -3.60477 34.7667 
2.75932 -2.08459 8.04664 
0 0 13.6116 
-4.28023 -5.40465 13.605 
0 0 13.6116 
0.885015 0.169557 13.9256 
11.2188 -0.175134 -22.3605 
0 0 13.6116 
0 0 13.6117 
0 0 13.6116 
0 0 13.6117 
0 0 13.6116 
0 0 13.6116 
0 0 13.6116 
0 0 13.6117 
0 0 13.6117 
0 0 13.6116 
VECTORS moment double
0 0 0 
0 0 0 
0 0 0 
0 0 0 
0 0 0 
0 0 0 
0 0 0 
0 0 0 
0 0 0 
0 0 0 
0 0 0 
0 0 0 
0 0 0 
0 0 0 
0 0 0 
0 0 0 
0 0 0 
0 0 0 
0 0 0 
0 0 0 
0 0 0 
0 0 0 
0 0 0 
SCALARS num_collisions int 1
LOOKUP_TABLE default
1 
1 
1 
1 
1 
1 
1 
1 
1 
1 
1 
1 
1 
1 
1 
1 
1 
1 
1 
1 
1 
1 
1 
VECTORS pos double
-0.428809 -0.395775 -0.427845 
-0.404002 -0.0103729 -0.424132 
-0.0130339 0.192408 -0.395962 
0.386393 0.401517 -0.39337 
0.201204 0.00683533 -0.500001 
0.199666 -0.186373 -0.500001 
-0.0112125 0.199884 -0.500006 
-0.195457 0.213499 -0.500003 
0.39661 -0.20339 -0.5 
-0.203432 -0.40646 -0.500004 
0.396508 0.196508 -0.5 
0.390737 0.397274 -0.50001 
-0.404389 -0.401111 -0.500007 
0.396488 -0.00351175 -0.5 
-0.403333 -0.203333 -0.5 
-0.40295 0.19705 -0.5 
-0.402763 0.397237 -0.5 
-0.203538 -0.203538 -0.5 
-0.203218 -0.00321788 -0.5 
-0.00366947 -0.203669 -0.5 
-0.00360232 -0.00360232 -0.5 
0.196913 0.396913 -0.5 
0.396713 -0.403287 -0.5 
VECTORS dir_n double
-0.147965 -0.0607131 0.987127 
0.240967 -0.0726546 -0.96781 
0.0487819 -0.310418 -0.949348 
0.104932 -0.200585 -0.97404 
-7.28414e-19 -1.26513e-16 -1 
2.26954e-16 -6.55528e-17 1 
-8.12494e-18 2.82849e-17 1 
5.09784e-17 -1.52977e-17 1 
7.34666e-17 0 1 
-1.79883e-17 -3.23474e-17 1 
7.34666e-17 0 1 
1.03907e-18 1.129e-16 1 
7.52582e-17 1.14176e-16 -1 
7.34665e-17 0 1 
7.34664e-17 0 1 
7.34665e-17 0 1 
7.34664e-17 0 1 
7.34665e-17 0 1 
7.34667e-17 0 1 
7.34665e-17 0 1 
7.34665e-17 0 1 
7.34662e-17 0 1 
7.34665e-17 0 1 
VECTORS dir_s double
0.806859 0.569778 0.155988 
-0.201376 0.971749 -0.123089 
-0.533837 0.795228 -0.287455 
-0.631896 0.742861 -0.221052 
0.811835 0.583887 -8.64209e-17 
-0.621848 -0.783138 -4.6808e-17 
0.630567 -0.776135 4.52133e-17 
0.7979 -0.60279 4.92624e-17 
1 0 0 
-0.62084 -0.783937 -8.21594e-17 
1 0 0 
0.982138 0.188164 4.82635e-17 
0.999878 -0.0156089 2.87506e-17 
1 0 0 
1 0 0 
1 0 0 
1 0 0 
1 0 0 
1 0 0 
1 0 0 
1 0 0 
1 0 0 
1 0 0 
