# vtk DataFile Version 2.0
Generated by NetDEM
ASCII 
DATASET POLYDATA
POINTS 786 double
-0.418738 -0.406921 -0.463738 
-0.428539 -0.406864 -0.392611 
-0.445957 -0.206667 -0.450016 
-0.425554 -0.130956 -0.39296 
-0.445957 -0.206667 -0.450016 
-0.45 -0.24456 -0.357568 
-0.412643 -0.00607901 -0.464872 
-0.409453 -0.0183071 -0.385205 
-0.449115 0.113418 -0.45001 
-0.374073 0.0705797 -0.399691 
-0.449227 0.349451 -0.450041 
-0.441069 0.275843 -0.382868 
-0.449227 0.349451 -0.450041 
-0.450008 0.382982 -0.355847 
-0.307605 -0.209103 -0.450079 
-0.227579 -0.16861 -0.406058 
-0.195331 -0.00922386 -0.450035 
-0.177391 0.0789749 -0.450255 
-0.195331 -0.00922386 -0.450035 
-0.129695 -0.0554657 -0.390472 
-0.173227 0.172041 -0.463815 
-0.177391 0.0789749 -0.450255 
-0.252928 0.366724 -0.463269 
-0.357169 0.373254 -0.406253 
-0.252928 0.366724 -0.463269 
-0.230537 0.326102 -0.394391 
-0.0557826 -0.396726 -0.460834 
-0.0849634 -0.388574 -0.395501 
-0.144545 -0.134555 -0.450061 
-0.227579 -0.16861 -0.406058 
-0.0557992 -0.0869393 -0.45001 
0.0509857 -0.0920761 -0.449982 
-0.0557992 -0.0869393 -0.45001 
-0.129695 -0.0554657 -0.390472 
0.0359552 0.178964 -0.452306 
0.0264039 0.259603 -0.449919 
0.0359552 0.178964 -0.452306 
0.111417 0.137206 -0.39826 
-0.0309939 0.319065 -0.441407 
-0.110982 0.313754 -0.39817 
-0.0309939 0.319065 -0.441407 
0.0264039 0.259603 -0.449919 
-0.0309939 0.319065 -0.441407 
-0.00626605 0.414061 -0.3684 
0.19338 -0.401134 -0.46271 
0.204862 -0.413376 -0.389826 
0.168858 -0.210212 -0.463093 
0.165587 -0.205376 -0.389786 
0.17308 -0.0077429 -0.462789 
0.174736 0.0130844 -0.385371 
0.160377 0.20948 -0.465051 
0.118711 0.301433 -0.425548 
0.301823 0.40382 -0.413878 
0.28707 0.374466 -0.319454 
0.301823 0.40382 -0.413878 
0.371085 0.438883 -0.465063 
0.450016 -0.407728 -0.450049 
0.395537 -0.450008 -0.377667 
0.430839 -0.303168 -0.450022 
0.437074 -0.356035 -0.365429 
0.380609 0.0910536 -0.450024 
0.449993 0.139309 -0.396592 
0.380609 0.0910536 -0.450024 
0.323045 0.0639113 -0.372902 
0.371085 0.438883 -0.465063 
0.397112 0.450105 -0.369496 
-0.428539 -0.406864 -0.392611 
-0.331675 -0.407967 -0.400578 
-0.428539 -0.406864 -0.392611 
-0.434766 -0.440265 -0.326318 
-0.409453 -0.0183071 -0.385205 
-0.315998 -0.0232089 -0.358456 
-0.409453 -0.0183071 -0.385205 
-0.450903 -0.0309955 -0.316237 
-0.331675 -0.407967 -0.400578 
-0.264228 -0.435819 -0.359045 
-0.227579 -0.16861 -0.406058 
-0.178315 -0.171889 -0.31924 
-0.154499 -0.0986764 -0.203054 
-0.236225 -0.064477 -0.15669 
-0.154499 -0.0986764 -0.203054 
-0.165789 -0.0717175 -0.29867 
-0.308995 0.156943 -0.462794 
-0.277247 0.0984236 -0.399308 
-0.14574 0.402565 -0.4469 
-0.110982 0.313754 -0.39817 
-0.14574 0.402565 -0.4469 
-0.22103 0.444468 -0.406708 
-0.0849634 -0.388574 -0.395501 
-0.00243986 -0.338439 -0.344582 
-0.0849634 -0.388574 -0.395501 
-0.159585 -0.376352 -0.333354 
0.317582 -0.238212 -0.103741 
0.296679 -0.326694 -0.141631 
0.317582 -0.238212 -0.103741 
0.3574 -0.21291 -0.0155756 
0.118711 0.301433 -0.425548 
0.0659768 0.396782 -0.408585 
0.204862 -0.413376 -0.389826 
0.203545 -0.435951 -0.318666 
0.165587 -0.205376 -0.389786 
0.213727 -0.199513 -0.306403 
0.165587 -0.205376 -0.389786 
0.159725 -0.309758 -0.378729 
0.174736 0.0130844 -0.385371 
0.162237 0.0554111 -0.328714 
0.195777 0.112369 -0.456374 
0.273501 0.0663919 -0.443881 
0.195777 0.112369 -0.456374 
0.260425 0.176764 -0.444723 
0.195777 0.112369 -0.456374 
0.111417 0.137206 -0.39826 
0.28707 0.374466 -0.319454 
0.200226 0.309261 -0.334369 
0.28707 0.374466 -0.319454 
0.249326 0.449962 -0.265854 
0.395537 -0.450008 -0.377667 
0.449992 -0.44709 -0.293853 
0.395537 -0.450008 -0.377667 
0.344043 -0.411832 -0.300925 
0.437074 -0.356035 -0.365429 
0.356406 -0.314964 -0.32293 
0.437074 -0.356035 -0.365429 
0.450016 -0.311155 -0.277009 
0.449993 0.139309 -0.396592 
0.450015 0.234065 -0.364645 
0.424993 0.339771 -0.45635 
0.431124 0.367265 -0.37608 
0.424993 0.339771 -0.45635 
0.330806 0.30812 -0.412566 
-0.434766 -0.440265 -0.326318 
-0.434701 -0.452814 -0.243975 
-0.315998 -0.0232089 -0.358456 
-0.240427 -0.00482687 -0.351384 
-0.315998 -0.0232089 -0.358456 
-0.296913 -0.0417288 -0.266573 
-0.290995 0.266718 -0.450014 
-0.32897 0.233341 -0.363745 
-0.441069 0.275843 -0.382868 
-0.422576 0.260304 -0.285856 
-0.441069 0.275843 -0.382868 
-0.423306 0.24215 -0.463965 
-0.182531 -0.375701 -0.450888 
-0.16044 -0.448284 -0.390242 
-0.236225 -0.064477 -0.15669 
-0.322366 -0.0276351 -0.133688 
-0.236225 -0.064477 -0.15669 
-0.273163 -0.100611 -0.0710807 
-0.347994 0.334743 -0.3311 
-0.357169 0.373254 -0.406253 
0.0437425 -0.438149 -0.449752 
0.0958215 -0.452644 -0.355396 
0.0437425 -0.438149 -0.449752 
0.0108492 -0.433687 -0.354239 
0.207772 -0.284655 -0.100824 
0.136974 -0.32906 -0.0430812 
0.212547 0.0688308 -0.187946 
0.203204 0.139624 -0.253852 
-0.0367532 0.223105 -0.384877 
0.00712148 0.293704 -0.336672 
0.255457 0.331125 -0.463873 
0.330806 0.30812 -0.412566 
0.255457 0.331125 -0.463873 
0.20572 0.384456 -0.393911 
0.203545 -0.435951 -0.318666 
0.263061 -0.443777 -0.23838 
0.203545 -0.435951 -0.318666 
0.0958215 -0.452644 -0.355396 
0.0509857 -0.0920761 -0.449982 
0.134179 -0.0990164 -0.397992 
0.0509857 -0.0920761 -0.449982 
0.0170191 -0.120001 -0.345434 
0.162237 0.0554111 -0.328714 
0.126277 0.0631519 -0.265875 
0.273501 0.0663919 -0.443881 
0.323045 0.0639113 -0.372902 
0.111417 0.137206 -0.39826 
0.0502997 0.118623 -0.325859 
0.378815 -0.217109 -0.450043 
0.450023 -0.207768 -0.380497 
0.378815 -0.217109 -0.450043 
0.336521 -0.17661 -0.369004 
0.38157 -0.107783 -0.450029 
0.450009 -0.106067 -0.377161 
0.38157 -0.107783 -0.450029 
0.348513 -0.0766694 -0.360934 
0.450015 0.234065 -0.364645 
0.449006 0.218997 -0.265818 
0.450015 0.234065 -0.364645 
0.4378 0.255102 -0.459994 
-0.434701 -0.452814 -0.243975 
-0.390477 -0.438574 -0.168627 
-0.178315 -0.171889 -0.31924 
-0.122875 -0.198852 -0.240626 
-0.359336 0.143282 -0.332673 
-0.374073 0.0705797 -0.399691 
-0.359336 0.143282 -0.332673 
-0.32897 0.233341 -0.363745 
-0.16044 -0.448284 -0.390242 
-0.264228 -0.435819 -0.359045 
-0.129695 -0.0554657 -0.390472 
-0.165789 -0.0717175 -0.29867 
-0.24369 0.0471095 -0.212693 
-0.286962 0.0850131 -0.294485 
-0.24369 0.0471095 -0.212693 
-0.162863 0.114115 -0.24326 
-0.24369 0.0471095 -0.212693 
-0.244918 0.0304231 -0.114115 
-0.0557794 0.126414 -0.44256 
0.0208678 0.0476267 -0.450069 
-0.0557794 0.126414 -0.44256 
-0.135386 0.145701 -0.393461 
-0.357169 0.373254 -0.406253 
-0.313881 0.437793 -0.344866 
0.0958215 -0.452644 -0.355396 
0.0850719 -0.424152 -0.267424 
0.0208678 0.0476267 -0.450069 
0.0321154 0.0431561 -0.354152 
0.0659768 0.396782 -0.408585 
-0.00212968 0.438155 -0.46494 
0.263061 -0.443777 -0.23838 
0.267716 -0.42767 -0.120491 
0.126277 0.0631519 -0.265875 
0.0432656 0.0715808 -0.252842 
0.126277 0.0631519 -0.265875 
0.111599 -0.0209146 -0.20125 
0.260425 0.176764 -0.444723 
0.237332 0.232399 -0.377026 
0.260425 0.176764 -0.444723 
0.331072 0.209113 -0.398627 
0.155159 0.449994 -0.450013 
0.20572 0.384456 -0.393911 
0.450009 -0.106067 -0.377161 
0.437668 -0.0372737 -0.305658 
0.450009 -0.106067 -0.377161 
0.450001 -0.144088 -0.284678 
0.385184 0.167499 -0.325576 
0.331072 0.209113 -0.398627 
0.330806 0.30812 -0.412566 
0.331072 0.209113 -0.398627 
0.431124 0.367265 -0.37608 
0.398975 0.299036 -0.30823 
0.431124 0.367265 -0.37608 
0.438389 0.398808 -0.2942 
-0.390477 -0.438574 -0.168627 
-0.4611 -0.452476 -0.119766 
-0.390477 -0.438574 -0.168627 
-0.372113 -0.364174 -0.113211 
-0.372113 -0.364174 -0.113211 
-0.330226 -0.441029 -0.0337345 
-0.296913 -0.0417288 -0.266573 
-0.354097 0.0111248 -0.226813 
-0.296913 -0.0417288 -0.266573 
-0.320454 -0.140955 -0.272429 
-0.450008 0.382982 -0.355847 
-0.450007 0.35309 -0.260436 
-0.244918 0.0304231 -0.114115 
-0.23257 0.0367679 -0.0150942 
0.3574 -0.21291 -0.0155756 
0.448945 -0.196414 -0.0522654 
0.3574 -0.21291 -0.0155756 
0.345588 -0.268421 0.0667531 
0.0170191 -0.120001 -0.345434 
0.0135782 -0.105572 -0.246577 
0.0321154 0.0431561 -0.354152 
0.0502997 0.118623 -0.325859 
-0.00212968 0.438155 -0.46494 
-0.00626605 0.414061 -0.3684 
0.303132 -0.386817 -0.205066 
0.344043 -0.411832 -0.300925 
0.303132 -0.386817 -0.205066 
0.296679 -0.326694 -0.141631 
0.0432656 0.0715808 -0.252842 
0.0502997 0.118623 -0.325859 
0.0432656 0.0715808 -0.252842 
0.00332619 0.112669 -0.183206 
0.237332 0.232399 -0.377026 
0.227133 0.182993 -0.317071 
0.349179 0.450017 -0.260531 
0.249326 0.449962 -0.265854 
0.349179 0.450017 -0.260531 
0.381915 0.426951 -0.184325 
0.450023 -0.207768 -0.380497 
0.392027 -0.224063 -0.300696 
-0.4611 -0.452476 -0.119766 
-0.443112 -0.456352 0.00144021 
-0.320454 -0.140955 -0.272429 
-0.341804 -0.216697 -0.21074 
-0.320454 -0.140955 -0.272429 
-0.232784 -0.170002 -0.234099 
-0.450903 -0.0309955 -0.316237 
-0.447653 -0.0887761 -0.250395 
-0.234602 0.180604 -0.358356 
-0.135386 0.145701 -0.393461 
-0.313881 0.437793 -0.344866 
-0.235215 0.439239 -0.283153 
-0.313881 0.437793 -0.344866 
-0.381407 0.449999 -0.272141 
-0.159585 -0.376352 -0.333354 
-0.21802 -0.353972 -0.231638 
-0.135386 0.145701 -0.393461 
-0.193433 0.0775521 -0.33701 
-0.230537 0.326102 -0.394391 
-0.167502 0.3542 -0.322751 
-0.230537 0.326102 -0.394391 
-0.207955 0.274581 -0.326393 
0.298295 -0.322092 -0.0527003 
0.296679 -0.326694 -0.141631 
0.298295 -0.322092 -0.0527003 
0.361657 -0.396365 -0.0729329 
0.450004 0.0511887 -0.151818 
0.447195 0.0814263 -0.247089 
0.450004 0.0511887 -0.151818 
0.44938 0.150992 -0.158002 
0.450004 0.0511887 -0.151818 
0.373756 0.0139985 -0.0988831 
-0.110982 0.313754 -0.39817 
-0.107871 0.276374 -0.315117 
0.238516 -0.142505 -0.387095 
0.336521 -0.17661 -0.369004 
0.238516 -0.142505 -0.387095 
0.134179 -0.0990164 -0.397992 
0.200226 0.309261 -0.334369 
0.220292 0.334055 -0.239771 
0.336521 -0.17661 -0.369004 
0.392027 -0.224063 -0.300696 
0.450002 0.0545136 -0.343365 
0.437668 -0.0372737 -0.305658 
-0.443112 -0.456352 0.00144021 
[...]
POINT_DATA 786
SCALARS id int 1
LOOKUP_TABLE default
0
25
1
152
1
26
2
27
3
103
4
54
4
104
6
31
7
58
7
81
8
58
9
84
9
134
10
35
11
31
12
66
12
81
13
38
13
69
14
139
14
38
14
189
15
40
16
41
17
42
18
39
19
44
19
24
20
45
21
46
23
48
23
172
24
124
25
30
25
50
27
52
27
127
30
105
31
76
32
57
32
162
33
78
34
139
34
159
35
160
35
130
36
240
36
111
39
89
40
65
41
216
41
91
42
67
43
68
43
93
43
69
44
143
44
194
45
145
45
120
46
95
46
195
48
73
49
99
49
98
50
75
52
77
52
102
53
154
54
179
54
109
55
80
57
252
57
356
59
84
60
85
60
185
61
340
62
193
63
164
64
98
64
144
65
90
65
85
66
166
66
112
67
92
68
172
69
138
71
121
71
146
72
96
72
171
73
273
73
74
75
100
76
251
79
103
79
154
80
105
81
162
82
307
82
208
82
107
83
88
83
133
84
129
85
165
88
113
89
114
90
215
92
117
92
142
93
118
93
123
94
144
96
222
96
196
97
123
98
123
99
173
99
149
100
125
100
101
101
175
102
177
102
126
104
329
107
407
111
246
111
346
112
186
113
138
114
189
115
120
115
240
117
138
117
238
118
168
119
194
119
199
121
170
125
150
126
401
126
151
127
176
128
133
129
282
129
204
130
205
133
203
134
209
134
153
136
240
136
265
137
272
137
248
137
372
139
158
141
146
141
166
143
219
146
170
148
222
150
350
153
158
153
253
157
258
157
328
157
309
158
183
160
206
161
360
161
341
164
188
165
190
166
191
168
218
168
198
169
214
170
221
171
297
172
197
173
198
174
224
174
298
175
300
175
275
176
277
177
301
179
201
179
279
182
334
182
333
183
213
184
259
186
331
188
288
188
212
189
263
189
239
193
268
194
344
195
220
197
272
199
318
200
255
201
354
202
253
202
257
204
254
206
207
209
234
210
235
211
485
212
238
212
287
216
341
219
318
220
245
221
296
222
347
227
328
227
228
229
304
231
287
233
253
233
388
234
308
234
258
235
281
235
260
238
337
239
264
242
372
243
294
243
394
244
394
244
319
244
444
245
265
246
296
247
343
248
373
248
348
249
274
251
331
254
304
257
352
257
258
259
333
259
282
260
285
261
320
261
445
262
344
264
289
265
320
268
293
268
368
271
297
273
348
274
324
277
375
285
310
286
359
287
338
288
313
288
289
289
314
292
317
293
343
308
332
309
404
309
332
310
335
314
339
316
422
318
374
318
323
321
370
324
424
328
329
330
335
330
430
334
359
337
388
337
432
339
364
343
362
346
395
346
446
352
354
352
433
352
428
362
468
363
393
366
420
368
393
370
420
370
391
371
420
372
392
373
422
391
467
393
468
393
418
399
448
407
427
424
449
427
457
428
453
442
468
127
0
278
0
329
0
304
0
104
0
354
0
298
1
137
1
73
1
148
1
20
1
121
1
96
1
296
1
195
1
196
1
149
1
366
1
122
1
245
2
75
2
45
2
335
2
320
2
184
3
29
3
274
3
169
3
239
3
119
3
344
3
53
4
17
4
122
4
49
4
47
4
83
4
0
4
74
4
88
4
22
4
10
4
64
4
114
4
55
4
16
4
24
4
2
4
20
4
72
4
109
4
12
4
8
4
5
4
15
4
38
4
66
4
18
4
71
4
9
4
60
4
21
4
23
4
94
4
68
4
33
4
11
4
29
4
14
4
3
4
187
4
13
4
43
4
1
4
34
4
6
4
7
4
4
4
147
4
180
4
CELL_DATA 393
VECTORS force double
11.1027 25.3043 -156.02 
-1.33585 -4.52808 -8.80666 
0.445053 2.27796 -10.1792 
128.233 65.2579 371.074 
-27.8678 -1.86494 -50.652 
33.7669 -201.751 -249.66 
65.3897 -224.496 -99.204 
-122.996 -55.1298 -147.957 
-0.334159 -16.2409 -1.51472 
-28.6672 25.0126 -43.4177 
1.33032 15.8404 -11.2715 
11.7545 74.7519 380.513 
130.898 30.9152 228.583 
84.1186 130.171 35.4126 
48.8382 27.1935 -111.654 
0.0796345 11.0914 268.119 
-10.8639 -7.77878 -15.8305 
51.7345 -41.895 -49.9598 
59.2759 -6.7832 -226.692 
53.6253 -42.1017 -36.7286 
43.6887 -37.4256 -44.6491 
5.84183 -47.0689 -7.80099 
9.7501 7.55338 -39.3735 
-4.13497 9.55712 -47.2568 
23.3606 -18.9554 -75.0595 
6.7542 -11.0529 -10.1476 
-390.697 79.3057 381.914 
-43.0085 -72.7997 265.508 
17.4962 17.2903 -56.1342 
-309.045 522.712 2191.79 
41.4518 -2.51397 -13.6681 
106.664 -8.81917 81.8007 
-22.9852 -6.36441 -62.3344 
-3.58432 2.64243 -13.2895 
9.83813 24.5063 -125.741 
-217.943 -149.404 -629.138 
84.7768 -7.63463 -182.948 
-11.6045 3.12296 0.768566 
-104.628 8.17691 -204.977 
8.79969 -0.507743 -15.5664 
-7.68803 -4.64887 31.4071 
-2.01988 2.47032 -10.5504 
21.3255 9.8414 -65.9757 
9.37789 7.47563 -30.1503 
100.425 -274.284 -728.608 
155.967 51.8678 -111.7 
1.43988 9.96806 7.86851 
-3.85265 -4.12944 -11.2077 
6.34426 -10.83 1.96831 
2.52842 5.25137 -32.6327 
-7.87826 -0.44824 -25.0218 
-0.928011 10.0659 -8.95498 
27.3249 -12.4348 -67.3421 
-128.955 14.5937 -461.237 
-132.717 -193.678 -525.901 
169.051 6.7494 -253.15 
258.648 -64.0626 -618.883 
77.929 -126.816 -781.705 
2.66186 4.07177 -21.3162 
8.07518 -0.722404 -17.0084 
-389.511 641.486 -2105.86 
-973.023 1239.84 -2470.19 
-10.1312 -7.30642 1.59416 
7.30094 28.8408 -107.939 
8.36428 91.2642 -33.4154 
4.15866 29.1787 -108.713 
303.908 21.3232 267.715 
281.48 -64.3098 337.043 
6.17088 5.86883 -19.2987 
2.65545 -45.8772 11.7153 
-14.7516 180.287 70.8386 
7.05681 5.70798 -20.4811 
0.433392 -0.396623 1.13238 
6.23409 0.306947 -7.36798 
-92.1009 5.57812 139.103 
0.491132 -1.02452 -5.62586 
4.99748 -2.22703 -7.68268 
0.522706 0.300957 -0.493715 
1.31267 -18.9623 16.6358 
1.72027 2.50786 -2.47264 
-54.1829 72.5885 -20.7369 
-23.8702 11.4679 -27.7641 
-4.42441 1.77233 -13.8976 
5.37118 1.53126 -5.69885 
-92.018 15.0311 53.8519 
-161.4 -48.6686 -267.655 
-9.71441 1.44874 -0.682948 
145.233 -34.6795 83.0496 
-43.0414 -61.3526 221.501 
-3.1531 -3.2922 -52.7693 
53.1885 -13.2896 -29.2611 
-14.2494 -2.37629 -34.0747 
2.76312 -2.13267 -12.5807 
23.5928 16.0816 -57.8599 
14.3651 -15.2848 57.554 
-1.76519 -11.7907 -74.0665 
-92.5499 28.8572 -136.574 
31.6969 51.0898 50.5943 
-13.0104 -31.8593 2.87614 
30.6073 2.76218 -15.5253 
10.5797 12.2289 -50.5495 
-2.77776 5.88559 -4.28802 
0.972646 -1.90237 -0.759273 
0.236361 -3.65202 -20.6723 
91.4354 76.0118 244.642 
-21.7458 15.6358 -113.081 
86.395 -49.4471 -209.02 
2.00471 1.60543 -0.0664644 
-181.267 -59.3529 -275.603 
3.04402 -7.0854 17.4094 
-1.85304 -0.103843 -5.15652 
44.1209 -60.8441 -124.014 
7.57122 -13.0147 -47.4156 
321.408 -66.6851 797.131 
204.253 -167.582 156.994 
-20.781 17.3485 3.4165 
4.23924 -15.4789 -19.0334 
-3.43902 5.51026 -13.6652 
119.115 9.38302 120.548 
25.1686 -62.1468 39.1479 
17.8049 14.8977 0.788234 
-9.45322 -10.4219 -17.0391 
7.06057 1.38519 -35.869 
-4.25252 -10.53 -18.2384 
-3.46406 -14.4922 -17.6614 
-34.459 8.30513 -77.4809 
-87.2405 21.7991 -88.8554 
-16.1406 27.8457 -25.2987 
-1.63108 5.52653 -19.6329 
-7.18105 -4.97477 10.5727 
2.51384 3.04575 -8.74215 
51.4894 20.5452 -119.719 
77.0753 12.9812 325.013 
-8.71957 -2.03654 -45.7853 
-3.0264 3.00904 4.0281 
-0.764838 -5.66919 -3.45171 
-3.1656 85.6387 358.591 
-16.5687 16.0159 150.119 
60.0736 -311.353 -1245.98 
112.914 -12.0191 -531.606 
-128.349 129.547 -150.312 
6.4756 -0.949572 -16.5285 
3.00147 1.06502 -24.1771 
7.30298 1.26221 -29.1599 
1.94807 -29.3477 -11.9548 
-1.25305 13.8381 24.8041 
3.56539 -1.36755 27.3791 
10.0351 10.6272 -25.7406 
27.6405 35.0498 6.12655 
34.9347 22.1537 27.6446 
-17.271 4.2692 -10.4686 
9.28012 97.9604 -179.827 
28.8112 83.7959 -131.178 
2.84577 -0.938463 3.94161 
-2.18196 -9.40772 -5.86376 
-0.895833 8.11082 18.8181 
9.71559 -11.3546 -20.5451 
8.07182 -1.18522 -4.33386 
-8.08988 -13.1343 25.0313 
-12.59 6.72117 -3.55494 
15.5152 -14.64 -7.51036 
-287.11 -74.2719 301.657 
-14.5813 0.59093 -14.7024 
4.30801 7.95084 -2.43784 
-1.63695 -3.83488 -9.41512 
-18.0368 -25.5944 25.9518 
9.88259 6.60928 2.34609 
-321.94 49.6706 43.0215 
25.1481 2.94723 19.1354 
-9.66545 -10.7662 -17.9129 
1.86124 18.1073 -16.0738 
142.688 121.203 210.736 
4.20244 -1.16926 -4.92098 
-4.95374 -1.55587 7.79718 
4.3748 -6.85997 -12.7267 
-0.622489 0.144253 0.148612 
-23.0561 5.88445 -67.7832 
-232.626 -229.414 667.14 
-219.298 237.374 763.974 
-0.363086 -0.921089 2.95706 
-3.15926 3.36547 -8.80769 
1.53333 -2.11888 -5.07037 
-25.3083 1.88863 -112.819 
36.4559 7.97014 -48.1854 
21.6646 -61.2423 6.1221 
49.2313 -43.8875 -34.1489 
-1.31543 2.87528 -0.344969 
-0.188402 -8.65658 -15.4127 
-3.99282 7.30774 -33.6097 
0.50287 -0.39597 -5.30303 
1.77913 11.945 -57.2733 
-4.30118 9.41415 -28.4507 
-1.31093 -2.85602 -13.5954 
1.66311 1.9414 18.7912 
0.587772 0.455625 -0.620676 
4.41108 10.3682 -21.6402 
142.449 100.732 -148.862 
9.66953 -4.10298 -13.852 
-9.32523 15.3243 6.46074 
2.08138 6.6987 -0.141507 
-11.6957 -2.18636 -37.5965 
13.2054 -20.0646 -73.1544 
-322.301 290.805 195.683 
120.955 23.9757 1401.99 
0.994772 -3.60053 7.75949 
43.7501 -89.6257 99.2709 
1.11056 -0.0287117 -0.695142 
6.18354 6.28917 -22.5546 
18.4565 -43.7851 -44.0726 
256.493 15.9758 -23.3174 
9.54825 -3.15186 -25.9624 
-2.15284 -76.206 -216.637 
-139.694 328.51 -136.104 
-8.61239 -16.1807 -176.065 
-27.0381 5.74134 12.3761 
3.16209 14.5667 69.4693 
-7.94415 13.9969 -5.46243 
-1.02578 0.179014 -13.3253 
-19.4 7.43276 -19.9417 
99.7759 255.713 -71.3322 
-8.30738 -23.7291 -37.6108 
2.85276 -2.8618 -11.9095 
2.6265 -1.2623 11.7493 
-1.09168 0.877172 -4.8462 
0.752969 0.0743665 4.03829 
-1.59137 4.14929 7.10679 
11.7038 -16.7566 5.12906 
1.83745 -1.71619 -2.03001 
-1382.54 393.117 697.796 
-1068.47 487.233 344.141 
-5.20816 7.51796 43.6264 
-46.3856 7.94116 -18.6965 
9.62606 -1.9636 -72.6608 
0.403458 6.37762 -25.8091 
0.0335167 0.14684 -0.193799 
-0.886534 0.43792 1.87147 
-0.963106 0.259324 1.96971 
0.369785 1.08786 1.32642 
-17.3867 19.2261 58.4504 
0.179162 -0.723147 -2.10844 
-14.6331 -85.3165 -38.8853 
-6.95612 -8.65756 20.5953 
-86.3113 -82.0441 -388.358 
-0.821062 4.50491 -50.0425 
2.18794 -13.4424 29.5572 
0.499065 0.580184 -4.31093 
-99.8809 -47.8776 -36.6122 
1.08917 0.926177 -7.22698 
-88.1519 34.3823 74.1472 
-529.49 -60.1532 -20.0061 
-1.67129 4.6147 -14.659 
9.65504 1.93942 -0.299027 
-42.0464 17.7429 -127.099 
18.0683 16.3148 18.0797 
-2.80063 -0.448494 -6.2982 
-78.8794 -11.5278 17.0068 
-0.412922 5.30078 -10.9744 
-9.07092 1.59858 -28.2019 
25.4762 -9.04033 108.74 
-17.2669 -14.647 -18.9196 
-0.307538 1.01332 -0.0611339 
16.0233 20.2038 -39.6899 
-1.36368 5.63702 -14.4618 
-1.5376 0.313992 -7.0696 
14.6642 16.2598 -79.3795 
-0.671238 0.26504 5.89664 
-3.14425 -3.74631 -9.34484 
7.64792 0.805916 -0.429647 
-2.90016 -5.5635 1.42001 
-1.88749 0.493166 -3.87126 
-2.25036 -0.601774 4.14258 
86.1337 216.847 -658.021 
-71.4777 125.213 -616.51 
1.46408 11.537 -9.99854 
-42.6622 19.3161 -9.17706 
35.9009 11.6243 -52.7592 
-0.0722652 -0.606017 -1.88576 
1.48876 -8.88193 15.4143 
25.6174 57.2725 -43.3462 
23.458 70.2344 -32.858 
-7.35529 -0.478015 -4.29821 
0.387583 2.75114 -6.35417 
31.478 0.605723 44.5855 
-12.2368 -9.68213 14.8944 
-1.80888 2.1857 0.54289 
1.07028 -0.618085 -10.26 
-3.88823 0.339261 -5.33184 
-7.40748 1.73175 -4.30265 
-0.0532971 0.202219 -0.235386 
-112.963 -93.4934 573.261 
-0.547973 1.54014 -1.96969 
0.0188311 0.260682 -2.18558 
96.7118 7.06086 -1.36137 
1.6758 43.3179 -47.1546 
71.8373 -19.9692 -70.2909 
47.9155 107.861 -160.089 
-91.5629 -8.38503 171.874 
40.5182 32.4714 -40.9496 
33.7214 -51.5263 -111.532 
-74.636 71.7068 58.5558 
67.454 -28.0671 -37.3127 
1.12474 -91.1917 -30.8513 
3.54243 0.146634 -2.39107 
0.0850355 16.2408 -32.8569 
102.249 -174.774 -10.8265 
24.8095 -29.6223 -31.1247 
1.42982 -9.93339 -27.8192 
0.0263763 0.105693 -0.0513224 
-1.99952 2.7227 -9.75512 
0.824112 0.187767 -1.79837 
-0.594706 1.1938 -5.15976 
-2.22932 7.58328 -13.9588 
7.22895 -2.95165 7.13078 
59.94 -23.3195 54.0332 
-0.660668 0.0404622 3.5783 
15.6848 -11.6041 15.4504 
1.55412 -0.000363053 4.11971 
-9.27178 85.1327 63.4194 
46.1981 13.4376 -4.37988 
-25.2824 46.1445 10.9817 
-8.12012 0.961536 10.5455 
-35.6385 -6.93719 15.2429 
-4.95684 -5.09681 5.8739 
-24.6795 0.740791 -27.5073 
-59.3716 -2.26243 -6.96974 
-15.6879 5.073 10.6603 
-18.2659 -13.1255 10.3107 
335.114 -114.733 1126.58 
-3.5892 2.89699 -1.91133 
-10.6434 -8.65476 -16.6185 
-10.8536 -39.2121 45.4192 
-0.0015322 2.50137e-09 -0.00156701 
-47.8773 -62.2733 24.746 
15.0015 42.3177 -25.8671 
2.51173 14.5151 -0.777905 
13.1288 -1.64228 -9.1146 
8.76755 3.64055 20.9802 
-4.76975 -10.4439 15.8199 
6.58349e-09 -0.00565525 -0.00578308 
1.48547 -3.16304 16.4247 
-0.230822 2.17045 4.02615 
-11.7251 -20.2047 8.87795 
-13.3206 -1.70243 -214.054 
198.615 -111.812 -138.512 
-3.16176 -1.93847 28.8644 
-23.4374 22.6165 97.1026 
0.00154771 5.40608e-09 13.6133 
-37.5314 -24.0582 68.0963 
-1.12084e-14 8.52306e-15 13.6117 
169.301 -108.336 -191.482 
-15.301 -24.9448 170.247 
15.5211 -24.5168 70.2374 
14.8355 -87.6292 -86.478 
9.49681e-12 5.44296e-12 13.6117 
-35.7106 101.135 375.609 
-1.97723 25.8372 46.2127 
8.14598 -18.9032 66.4885 
2.63346 -0.677308 29.2412 
4.34893 -11.7351 62.696 
8.71356 16.9901 -27.5587 
88.1262 -39.9957 341.917 
8.30262 -12.9379 100.71 
11.4934 1.48035 58.5232 
-0.395192 -8.82387 39.007 
82.1642 7.9133 107.855 
-1.13145 -15.156 24.6591 
0.357196 0.791009 14.3151 
-9.37998 -8.58915 51.4297 
-31.362 22.5754 69.2989 
113.585 17.2714 27.2692 
-7.36005 13.6175 22.8913 
7.48379 8.29354 79.492 
-2.72644 -90.5006 362.193 
-11.2135 -3.70862 22.9692 
60.6856 -477.994 820.074 
-13.5066 5.3635 67.9116 
2.85958 -6.70002 25.9164 
-95.9816 69.1426 90.7535 
1.63372 -2.09009 22.8263 
-71.7887 -28.219 136.498 
1.42985e-08 0.00571249 13.6175 
-4.1907 -0.48349 -4.95854 
20.5076 -17.9862 36.6087 
-9.23648e-14 1.19663e-13 13.6117 
-28.8027 27.6444 -84.3612 
-82.4668 -62.225 -225.96 
0.776177 3.22366 32.3965 
-6.31469 1.76395 10.2371 
89.0813 47.3227 175.658 
19.2011 -8.26981 60.3603 
-7.34746 53.6498 -21.8181 
-6.12651e-11 1.99963e-10 13.6117 
-2.36335 1.97279 12.6072 
VECTORS moment double
0 0 0 
0 0 0 
0 0 0 
0 0 0 
0 0 0 
0 0 0 
0 0 0 
0 0 0 
0 0 0 
0 0 0 
0 0 0 
0 0 0 
0 0 0 
0 0 0 
0 0 0 
0 0 0 
0 0 0 
0 0 0 
0 0 0 
0 0 0 
0 0 0 
0 0 0 
0 0 0 
0 0 0 
0 0 0 
0 0 0 
0 0 0 
0 0 0 
0 0 0 
0 0 0 
0 0 0 
0 0 0 
0 0 0 
0 0 0 
0 0 0 
0 0 0 
0 0 0 
0 0 0 
0 0 0 
0 0 0 
0 0 0 
0 0 0 
0 0 0 
0 0 0 
0 0 0 
0 0 0 
0 0 0 
0 0 0 
0 0 0 
0 0 0 
0 0 0 
0 0 0 
0 0 0 
0 0 0 
0 0 0 
0 0 0 
0 0 0 
0 0 0 
0 0 0 
0 0 0 
0 0 0 
0 0 0 
0 0 0 
0 0 0 
0 0 0 
0 0 0 
0 0 0 
0 0 0 
0 0 0 
0 0 0 
0 0 0 
0 0 0 
0 0 0 
0 0 0 
0 0 0 
0 0 0 
0 0 0 
0 0 0 
0 0 0 
0 0 0 
0 0 0 
0 0 0 
0 0 0 
0 0 0 
0 0 0 
0 0 0 
0 0 0 
0 0 0 
0 0 0 
0 0 0 
0 0 0 
0 0 0 
0 0 0 
0 0 0 
0 0 0 
0 0 0 
0 0 0 
0 0 0 
0 0 0 
0 0 0 
0 0 0 
0 0 0 
0 0 0 
0 0 0 
0 0 0 
0 0 0 
0 0 0 
0 0 0 
0 0 0 
0 0 0 
0 0 0 
0 0 0 
0 0 0 
0 0 0 
0 0 0 
0 0 0 
0 0 0 
0 0 0 
0 0 0 
0 0 0 
0 0 0 
0 0 0 
0 0 0 
0 0 0 
0 0 0 
0 0 0 
0 0 0 
0 0 0 
0 0 0 
0 0 0 
0 0 0 
0 0 0 
0 0 0 
0 0 0 
0 0 0 
0 0 0 
0 0 0 
0 0 0 
0 0 0 
0 0 0 
0 0 0 
0 0 0 
0 0 0 
0 0 0 
0 0 0 
0 0 0 
0 0 0 
0 0 0 
0 0 0 
0 0 0 
0 0 0 
0 0 0 
0 0 0 
0 0 0 
0 0 0 
0 0 0 
0 0 0 
0 0 0 
0 0 0 
0 0 0 
0 0 0 
0 0 0 
0 0 0 
0 0 0 
0 0 0 
0 0 0 
0 0 0 
0 0 0 
0 0 0 
0 0 0 
0 0 0 
0 0 0 
0 0 0 
0 0 0 
0 0 0 
0 0 0 
0 0 0 
0 0 0 
0 0 0 
0 0 0 
0 0 0 
0 0 0 
0 0 0 
0 0 0 
0 0 0 
0 0 0 
0 0 0 
0 0 0 
0 0 0 
0 0 0 
0 0 0 
0 0 0 
0 0 0 
0 0 0 
0 0 0 
0 0 0 
0 0 0 
0 0 0 
0 0 0 
0 0 0 
0 0 0 
0 0 0 
0 0 0 
0 0 0 
0 0 0 
0 0 0 
0 0 0 
0 0 0 
0 0 0 
0 0 0 
0 0 0 
0 0 0 
0 0 0 
0 0 0 
0 0 0 
0 0 0 
0 0 0 
0 0 0 
0 0 0 
0 0 0 
0 0 0 
0 0 0 
0 0 0 
0 0 0 
0 0 0 
0 0 0 
0 0 0 
0 0 0 
0 0 0 
0 0 0 
0 0 0 
0 0 0 
0 0 0 
0 0 0 
0 0 0 
0 0 0 
0 0 0 
0 0 0 
0 0 0 
0 0 0 
0 0 0 
0 0 0 
0 0 0 
0 0 0 
0 0 0 
0 0 0 
0 0 0 
0 0 0 
0 0 0 
0 0 0 
0 0 0 
0 0 0 
0 0 0 
0 0 0 
0 0 0 
0 0 0 
0 0 0 
0 0 0 
0 0 0 
0 0 0 
0 0 0 
0 0 0 
0 0 0 
0 0 0 
0 0 0 
0 0 0 
0 0 0 
0 0 0 
0 0 0 
0 0 0 
0 0 0 
0 0 0 
0 0 0 
0 0 0 
0 0 0 
0 0 0 
0 0 0 
0 0 0 
0 0 0 
0 0 0 
0 0 0 
0 0 0 
0 0 0 
0 0 0 
0 0 0 
0 0 0 
0 0 0 
0 0 0 
0 0 0 
0 0 0 
0 0 0 
0 0 0 
0 0 0 
0 0 0 
0 0 0 
0 0 0 
0 0 0 
0 0 0 
0 0 0 
0 0 0 
0 0 0 
0 0 0 
0 0 0 
0 0 0 
0 0 0 
0 0 0 
0 0 0 
0 0 0 
0 0 0 
0 0 0 
0 0 0 
0 0 0 
0 0 0 
0 0 0 
0 0 0 
0 0 0 
0 0 0 
0 0 0 
0 0 0 
0 0 0 
0 0 0 
0 0 0 
0 0 0 
0 0 0 
0 0 0 
0 0 0 
0 0 0 
0 0 0 
0 0 0 
0 0 0 
0 0 0 
0 0 0 
0 0 0 
0 0 0 
0 0 0 
0 0 0 
0 0 0 
0 0 0 
0 0 0 
0 0 0 
0 0 0 
0 0 0 
0 0 0 
0 0 0 
0 0 0 
0 0 0 
0 0 0 
0 0 0 
0 0 0 
0 0 0 
0 0 0 
0 0 0 
0 0 0 
0 0 0 
0 0 0 
0 0 0 
0 0 0 
0 0 0 
0 0 0 
0 0 0 
0 0 0 
0 0 0 
0 0 0 
0 0 0 
0 0 0 
0 0 0 
0 0 0 
0 0 0 
0 0 0 
0 0 0 
0 0 0 
0 0 0 
0 0 0 
0 0 0 
0 0 0 
0 0 0 
0 0 0 
0 0 0 
0 0 0 
0 0 0 
0 0 0 
0 0 0 
0 0 0 
0 0 0 
0 0 0 
0 0 0 
0 0 0 
0 0 0 
0 0 0 
0 0 0 
0 0 0 
0 0 0 
0 0 0 
SCALARS num_collisions int 1
LOOKUP_TABLE default
1 
1 
1 
1 
1 
1 
1 
1 
1 
1 
1 
1 
1 
1 
1 
1 
1 
1 
1 
1 
1 
1 
1 
1 
1 
1 
1 
1 
1 
1 
1 
1 
1 
1 
1 
1 
1 
1 
1 
1 
1 
1 
1 
1 
1 
1 
1 
1 
1 
1 
1 
1 
1 
1 
1 
1 
1 
1 
1 
1 
1 
1 
1 
1 
1 
1 
1 
1 
1 
1 
1 
1 
1 
1 
1 
1 
1 
1 
1 
1 
1 
1 
1 
1 
1 
1 
1 
1 
1 
1 
1 
1 
1 
1 
1 
1 
1 
1 
1 
1 
1 
1 
1 
1 
1 
1 
1 
1 
1 
1 
1 
1 
1 
1 
1 
1 
1 
1 
1 
1 
1 
1 
1 
1 
1 
1 
1 
1 
1 
1 
1 
1 
1 
1 
1 
1 
1 
1 
1 
1 
1 
1 
1 
1 
1 
1 
1 
1 
1 
1 
1 
1 
1 
1 
1 
1 
1 
1 
1 
1 
1 
1 
1 
1 
1 
1 
1 
1 
1 
1 
1 
1 
1 
1 
1 
1 
1 
1 
1 
1 
1 
1 
1 
1 
1 
1 
1 
1 
1 
1 
1 
1 
1 
1 
1 
1 
1 
1 
1 
1 
1 
1 
1 
1 
1 
1 
1 
1 
1 
1 
1 
1 
1 
1 
1 
1 
1 
1 
1 
1 
1 
1 
1 
1 
1 
1 
1 
1 
1 
1 
1 
1 
1 
1 
1 
1 
1 
1 
1 
1 
1 
1 
1 
1 
1 
1 
1 
1 
1 
1 
1 
1 
1 
1 
1 
1 
1 
1 
1 
1 
1 
1 
1 
1 
1 
1 
1 
1 
1 
1 
1 
1 
1 
1 
1 
1 
1 
1 
1 
1 
1 
1 
1 
1 
1 
1 
1 
1 
1 
1 
1 
1 
1 
1 
1 
1 
1 
1 
1 
1 
1 
1 
1 
1 
1 
1 
1 
1 
1 
1 
1 
1 
1 
1 
1 
1 
1 
1 
1 
1 
1 
1 
1 
1 
1 
1 
1 
1 
1 
1 
1 
1 
1 
1 
1 
1 
1 
1 
1 
1 
1 
1 
1 
1 
1 
1 
1 
1 
1 
1 
1 
1 
1 
1 
1 
1 
1 
1 
1 
1 
1 
1 
1 
1 
1 
1 
1 
1 
1 
1 
1 
1 
1 
1 
1 
1 
1 
1 
1 
1 
1 
1 
1 
1 
1 
1 
1 
1 
1 
1 
1 
1 
1 
VECTORS pos double
-0.410206 -0.412453 -0.426354 
-0.437979 -0.164728 -0.423992 
-0.447978 -0.225606 -0.403789 
-0.387461 -0.0257282 -0.423807 
-0.411596 0.0919996 -0.424845 
-0.445148 0.312647 -0.416454 
-0.449618 0.366216 -0.402943 
-0.267584 -0.188862 -0.428067 
-0.184072 0.0383465 -0.439554 
-0.162513 -0.0323447 -0.420254 
-0.181457 0.11735 -0.46609 
-0.300716 0.362797 -0.427986 
-0.222709 0.334062 -0.44592 
-0.0784128 -0.381319 -0.43506 
-0.186053 -0.151591 -0.428058 
-0.00602611 -0.0852313 -0.445684 
-0.092747 -0.0712021 -0.420242 
0.04572 0.227917 -0.461544 
0.0726748 0.155719 -0.423867 
-0.0707621 0.307899 -0.426381 
-0.00422362 0.284425 -0.423963 
-0.0245747 0.358294 -0.401265 
0.217219 -0.41318 -0.423975 
0.161509 -0.205907 -0.426084 
0.191085 0.0178063 -0.424633 
0.143021 0.251893 -0.445831 
0.294447 0.389144 -0.366661 
0.333707 0.417888 -0.449723 
0.422777 -0.428868 -0.413857 
0.433962 -0.329605 -0.407715 
0.415301 0.115181 -0.423309 
0.351828 0.0774825 -0.411463 
0.405917 0.456278 -0.423704 
-0.36834 -0.39633 -0.392468 
-0.418384 -0.426074 -0.355062 
-0.348454 -0.0197851 -0.38069 
-0.43795 -0.0277549 -0.359066 
-0.311636 -0.415311 -0.364576 
-0.20294 -0.170257 -0.362643 
-0.195362 -0.0815766 -0.179873 
-0.160144 -0.0851962 -0.250863 
-0.293946 0.119245 -0.441586 
-0.139832 0.374882 -0.40535 
-0.177501 0.422559 -0.3903 
-0.0349244 -0.373502 -0.370105 
-0.132309 -0.377508 -0.37486 
0.310862 -0.279759 -0.130723 
0.337493 -0.225562 -0.0596521 
0.0822834 0.346627 -0.404719 
0.198924 -0.430433 -0.357786 
0.183555 -0.192762 -0.344297 
0.159902 -0.269187 -0.40908 
0.168047 0.0399471 -0.359551 
0.232597 0.0945927 -0.440009 
0.226638 0.16361 -0.453654 
0.149976 0.126805 -0.42833 
0.249494 0.342531 -0.327679 
0.268198 0.412213 -0.292651 
0.422765 -0.44855 -0.335758 
0.369792 -0.430921 -0.339294 
0.396744 -0.335502 -0.344164 
0.443545 -0.333595 -0.321213 
0.450004 0.186687 -0.380619 
0.439813 0.35598 -0.4113 
0.373328 0.318065 -0.436898 
-0.415119 -0.450373 -0.277585 
-0.288458 0.0114963 -0.349269 
-0.327704 -0.0236255 -0.297554 
-0.309981 0.250028 -0.406878 
-0.431823 0.268072 -0.334362 
-0.437474 0.254927 -0.428134 
-0.180047 -0.409084 -0.408356 
-0.284095 -0.0502176 -0.158943 
-0.254693 -0.0825436 -0.113885 
-0.348334 0.34467 -0.366812 
0.0687131 -0.463151 -0.409062 
0.0403463 -0.445903 -0.402076 
0.177675 -0.303379 -0.0655543 
0.20441 0.101379 -0.225006 
-0.0124722 0.254815 -0.365333 
0.301011 0.324941 -0.449018 
0.224688 0.363084 -0.434935 
0.240606 -0.435086 -0.269658 
0.148093 -0.426785 -0.337506 
0.0964712 -0.0877569 -0.434032 
0.0130014 -0.122347 -0.395209 
0.139448 0.0455074 -0.296111 