# vtk DataFile Version 2.0
Generated by NetDEM
ASCII 
DATASET POLYDATA
POINTS 52 double
-0.0235776 -0.407865 -0.450416 
-0.00356374 -0.401031 -0.364785 
-0.408139 -0.00615716 -0.462686 
-0.375276 -0.0060089 -0.500022 
0.174323 -0.0066036 -0.460348 
0.201203 0.00681586 -0.500002 
-0.0170971 0.395224 -0.449256 
0.0103338 0.402709 -0.500003 
-0.21267 -0.422258 -0.442246 
-0.203225 -0.406223 -0.500003 
0.399271 0.394612 -0.442529 
0.390719 0.397284 -0.500003 
0.182834 0.206089 -0.449014 
0.214146 0.216184 -0.500003 
0.39661 -0.20339 -0.450007 
0.39661 -0.20339 -0.5 
-0.420692 -0.403039 -0.463819 
-0.40518 -0.399829 -0.500002 
0.396508 0.196508 -0.450007 
0.396508 0.196508 -0.5 
0.175299 -0.211155 -0.462179 
0.213383 -0.199582 -0.500003 
-0.0235776 -0.407865 -0.450416 
0.00289819 -0.41995 -0.500014 
-0.218753 0.386038 -0.449438 
-0.217057 0.409142 -0.500002 
-0.172341 0.200238 -0.460432 
-0.194941 0.212545 -0.500003 
0.00470961 0.191457 -0.444839 
-0.0116815 0.199934 -0.500003 
0.396488 -0.00351175 -0.450007 
0.396488 -0.00351175 -0.5 
-0.403333 -0.203333 -0.450007 
-0.403333 -0.203333 -0.5 
-0.40295 0.19705 -0.450007 
-0.40295 0.19705 -0.5 
-0.402763 0.397237 -0.450007 
-0.402763 0.397237 -0.5 
-0.203538 -0.203538 -0.450007 
-0.203538 -0.203538 -0.5 
-0.203218 -0.00321788 -0.450007 
-0.203218 -0.00321788 -0.5 
-0.00366947 -0.203669 -0.450007 
-0.00366947 -0.203669 -0.5 
-0.00360232 -0.00360232 -0.450007 
-0.00360232 -0.00360232 -0.5 
0.196913 0.396913 -0.450007 
0.196913 0.396913 -0.5 
0.396713 -0.403287 -0.450007 
0.396713 -0.403287 -0.5 
0.190117 -0.402876 -0.464032 
0.206333 -0.401089 -0.500005 
LINES 26 78
2 0 1
2 2 3
2 4 5
2 6 7
2 8 9
2 10 11
2 12 13
2 14 15
2 16 17
2 18 19
2 20 21
2 22 23
2 24 25
2 26 27
2 28 29
2 30 31
2 32 33
2 34 35
2 36 37
2 38 39
2 40 41
2 42 43
2 44 45
2 46 47
2 48 49
2 50 51
POINT_DATA 52
SCALARS id int 1
LOOKUP_TABLE default
10
35
2
4
17
4
14
4
5
4
24
4
18
4
21
4
0
4
23
4
16
4
10
4
9
4
8
4
13
4
22
4
1
4
3
4
4
4
6
4
7
4
11
4
12
4
19
4
20
4
15
4
CELL_DATA 26
VECTORS force double
-1.44488 4.51605 23.5726 
-18.3872 -0.893602 23.0486 
-3.89341 -1.93819 10.0188 
-4.26357 -0.627333 10.6637 
-1.3837 -2.52662 11.8497 
1.38836 -0.651891 13.0191 
-5.54812 -1.65883 11.309 
0 0 13.6114 
-2.4287 -0.0122775 10.7349 
0 0 13.6113 
-7.05344 -1.75574 10.6936 
1.00232 -2.98079 -35.7469 
-0.30956 -2.31455 6.84765 
5.64196 -2.16991 9.48721 
2.57458 -1.94523 12.1918 
0 0 13.6116 
0 0 13.6115 
0 0 13.6115 
0 0 13.6115 
0 0 13.6115 
0 0 13.6113 
0 0 13.6115 
0 0 13.6116 
0 0 13.6115 
0 0 13.6114 
13.672 0.290411 -17.677 
VECTORS moment double
0 0 0 
0 0 0 
0 0 0 
0 0 0 
0 0 0 
0 0 0 
0 0 0 
0 0 0 
0 0 0 
0 0 0 
0 0 0 
0 0 0 
0 0 0 
0 0 0 
0 0 0 
0 0 0 
0 0 0 
0 0 0 
0 0 0 
0 0 0 
0 0 0 
0 0 0 
0 0 0 
0 0 0 
0 0 0 
0 0 0 
SCALARS num_collisions int 1
LOOKUP_TABLE default
1 
1 
1 
1 
1 
1 
1 
1 
1 
1 
1 
1 
1 
1 
1 
1 
1 
1 
1 
1 
1 
1 
1 
1 
1 
1 
VECTORS pos double
5.68008e-05 -0.414079 -0.421372 
-0.375276 -0.0060089 -0.500022 
0.201203 0.00681586 -0.500002 
0.0103338 0.402709 -0.500003 
-0.203225 -0.406223 -0.500003 
0.390719 0.397284 -0.500003 
0.214146 0.216184 -0.500003 
0.39661 -0.20339 -0.5 
-0.40518 -0.399829 -0.500002 
0.396508 0.196508 -0.5 
0.213383 -0.199582 -0.500003 
0.00289819 -0.41995 -0.500014 
-0.217057 0.409142 -0.500002 
-0.194941 0.212545 -0.500003 
-0.0116815 0.199934 -0.500003 
0.396488 -0.00351175 -0.5 
-0.403333 -0.203333 -0.5 
-0.40295 0.19705 -0.5 
-0.402763 0.397237 -0.5 
-0.203538 -0.203538 -0.5 
-0.203218 -0.00321788 -0.5 
-0.00366947 -0.203669 -0.5 
-0.00360232 -0.00360232 -0.5 
0.196913 0.396913 -0.5 
0.396713 -0.403287 -0.5 
0.206333 -0.401089 -0.500005 
VECTORS dir_n double
0.364285 -0.137972 0.92101 
2.81411e-17 -4.03765e-18 1 
2.07732e-17 2.096e-19 1 
2.1051e-16 -1.28403e-16 1 
9.95654e-17 -1.39256e-16 1 
1.05173e-16 6.80268e-17 1 
-1.15953e-17 4.28928e-17 1 
7.34678e-17 0 1 
8.42306e-17 9.72652e-17 1 
7.34685e-17 0 1 
2.0499e-16 3.25199e-17 1 
9.54268e-17 5.05677e-17 -1 
9.56023e-17 -3.85369e-17 1 
3.26232e-17 4.50669e-17 1 
1.26314e-16 1.07075e-16 1 
7.34667e-17 0 1 
7.34675e-17 0 1 
7.34674e-17 0 1 
7.34671e-17 0 1 
7.34672e-17 0 1 
7.34681e-17 0 1 
7.34674e-17 0 1 
7.34667e-17 0 1 
7.34673e-17 0 1 
7.34677e-17 0 1 
1.35644e-17 -2.04982e-17 -1 
VECTORS dir_s double
-0.716781 0.589862 0.371871 
-0.998821 -0.0485419 -1.54235e-17 
-0.895209 -0.445647 -7.06633e-17 
-0.989348 -0.145571 9.67984e-17 
-0.480334 -0.877086 -1.1485e-16 
0.905184 -0.42502 3.23924e-18 
-0.958092 -0.286459 -8.35419e-17 
1 0 0 
-0.999987 -0.00505509 -8.4318e-18 
1 0 0 
-0.970389 -0.241548 1.1603e-16 
0.318723 -0.947848 -2.64319e-17 
-0.132565 -0.991174 -4.48825e-17 
0.93335 -0.358969 8.41085e-17 
0.797867 -0.602833 2.92098e-17 
1 0 0 
1 0 0 
1 0 0 
1 0 0 
1 0 0 
1 0 0 
1 0 0 
1 0 0 
1 0 0 
1 0 0 
0.999774 0.0212365 -4.34319e-17 
