# vtk DataFile Version 2.0
Generated by NetDEM
ASCII 
DATASET POLYDATA
POINTS 108 double
-0.418602 -0.405717 -0.463437 
-0.408132 -0.400493 -0.388066 
-0.409933 -0.00486613 -0.463517 
-0.411616 -0.00558133 -0.39119 
-0.40295 0.19705 -0.450009 
-0.40295 0.19705 -0.350026 
-0.402763 0.397237 -0.450029 
-0.402763 0.397237 -0.350053 
-0.231751 -0.433707 -0.452027 
-0.227274 -0.403701 -0.355011 
-0.203218 -0.00321788 -0.450014 
-0.203218 -0.00321788 -0.35002 
0.175845 -0.213317 -0.463725 
0.198212 -0.212801 -0.391201 
0.174054 -0.00903862 -0.461378 
0.188319 -0.0116872 -0.383768 
0.165615 0.216229 -0.45918 
0.182009 0.195215 -0.367708 
0.196913 0.396913 -0.450028 
0.196913 0.396913 -0.350049 
0.39661 -0.20339 -0.450028 
0.39661 -0.20339 -0.35005 
0.396508 0.196508 -0.450017 
0.396508 0.196508 -0.350034 
0.398903 0.403668 -0.442578 
0.394098 0.394257 -0.340074 
-0.408132 -0.400493 -0.388066 
-0.409663 -0.404055 -0.315819 
-0.411616 -0.00558133 -0.39119 
-0.405817 -0.0042525 -0.310835 
-0.402763 0.397237 -0.350053 
-0.402763 0.397237 -0.250077 
0.198212 -0.212801 -0.391201 
0.19191 -0.2039 -0.302713 
0.188319 -0.0116872 -0.383768 
0.18678 -0.00500316 -0.310602 
0.182009 0.195215 -0.367708 
0.200675 0.192178 -0.28241 
0.196913 0.396913 -0.350049 
0.196913 0.396913 -0.25006 
0.39661 -0.20339 -0.35005 
0.39661 -0.20339 -0.250061 
0.396508 0.196508 -0.350034 
0.396508 0.196508 -0.250057 
0.394098 0.394257 -0.340074 
0.396247 0.391218 -0.233632 
-0.409663 -0.404055 -0.315819 
-0.403232 -0.403541 -0.228038 
-0.402763 0.397237 -0.250077 
-0.402763 0.397237 -0.150097 
-0.203965 0.195501 -0.28937 
-0.202333 0.194997 -0.190548 
0.19191 -0.2039 -0.302713 
0.196331 -0.202692 -0.21162 
0.18678 -0.00500316 -0.310602 
0.197453 -0.0028642 -0.226327 
0.396247 0.391218 -0.233632 
0.398725 0.396429 -0.12192 
-0.409933 -0.00486613 -0.463517 
-0.397464 0.00611328 -0.500003 
0.174054 -0.00903862 -0.461378 
0.214002 0.000408242 -0.500092 
-0.0370558 0.399358 -0.462455 
-0.0296635 0.431149 -0.500002 
0.0111606 0.182446 -0.447845 
-0.00696173 0.187272 -0.500003 
-0.24442 0.369582 -0.464138 
-0.227044 0.369412 -0.500003 
-0.174367 0.193889 -0.461548 
-0.204338 0.204201 -0.500001 
0.39661 -0.20339 -0.450028 
0.39661 -0.20339 -0.5 
-0.418602 -0.405717 -0.463437 
-0.40445 -0.401136 -0.500013 
0.396508 0.196508 -0.450017 
0.396508 0.196508 -0.5 
0.191654 -0.401015 -0.463181 
0.211191 -0.429641 -0.500004 
0.165615 0.216229 -0.45918 
0.191727 0.227402 -0.500014 
0.175845 -0.213317 -0.463725 
0.214161 -0.19827 -0.500033 
0.398903 0.403668 -0.442578 
0.401544 0.403546 -0.500015 
-0.023845 -0.408885 -0.450776 
-0.0055573 -0.388066 -0.500003 
0.396488 -0.00351175 -0.450007 
0.396488 -0.00351175 -0.5 
-0.403333 -0.203333 -0.450007 
-0.403333 -0.203333 -0.5 
-0.40295 0.19705 -0.450009 
-0.40295 0.19705 -0.5 
-0.402763 0.397237 -0.450029 
-0.402763 0.397237 -0.5 
-0.203538 -0.203538 -0.450007 
-0.203538 -0.203538 -0.5 
-0.203218 -0.00321788 -0.450014 
-0.203218 -0.00321788 -0.5 
-0.00366947 -0.203669 -0.450007 
-0.00366947 -0.203669 -0.5 
-0.00360232 -0.00360232 -0.450007 
-0.00360232 -0.00360232 -0.5 
0.196913 0.396913 -0.450028 
0.196913 0.396913 -0.5 
0.396713 -0.403287 -0.450007 
0.396713 -0.403287 -0.5 
-0.231751 -0.433707 -0.452027 
-0.214856 -0.409134 -0.500004 
LINES 54 162
2 0 1
2 2 3
2 4 5
2 6 7
2 8 9
2 10 11
2 12 13
2 14 15
2 16 17
2 18 19
2 20 21
2 22 23
2 24 25
2 26 27
2 28 29
2 30 31
2 32 33
2 34 35
2 36 37
2 38 39
2 40 41
2 42 43
2 44 45
2 46 47
2 48 49
2 50 51
2 52 53
2 54 55
2 56 57
2 58 59
2 60 61
2 62 63
2 64 65
2 66 67
2 68 69
2 70 71
2 72 73
2 74 75
2 76 77
2 78 79
2 80 81
2 82 83
2 84 85
2 86 87
2 88 89
2 90 91
2 92 93
2 94 95
2 96 97
2 98 99
2 100 101
2 102 103
2 104 105
2 106 107
POINT_DATA 108
SCALARS id int 1
LOOKUP_TABLE default
0
25
2
27
3
28
4
29
5
30
7
32
16
41
17
42
18
43
19
44
21
46
23
48
24
49
25
50
27
52
29
54
41
66
42
67
43
68
44
69
46
71
48
73
49
74
50
75
54
79
58
83
66
91
67
92
74
99
2
4
17
4
14
4
13
4
9
4
8
4
21
4
0
4
23
4
15
4
18
4
16
4
24
4
10
4
22
4
1
4
3
4
4
4
6
4
7
4
11
4
12
4
19
4
20
4
5
4
CELL_DATA 54
VECTORS force double
-39.4727 11.9339 -211.016 
42.4332 83.4461 -96.6051 
0 0 -94.7565 
0 0 -57.6923 
0.62132 0.68993 -5.72362 
0 0 -10.554 
-1.12063 -11.4573 -137.201 
34.2051 36.8857 -412.452 
3.79742 8.65297 -49.6188 
0 0 -40.0225 
0 0 -40.455 
0 0 -53.0564 
2.15744 2.8411 -47.0815 
-6.87858 35.0589 -403.901 
0.936265 -0.623099 15.5506 
0 0 -57.2335 
4.11303 -4.38742 -177.593 
32.8767 3.54486 -247.94 
-8.17645 -2.22856 -22.2514 
0 0 -20.37 
0 0 -20.4861 
0 0 -35.8213 
-1.99234 4.01062 -32.3168 
83.472 1.89452 -253.124 
0 0 -32.6242 
-0.0151663 -0.0505548 8.72541 
9.10406 17.902 -97.8342 
36.13 -4.75082 -58.7464 
-1.42131 0.0299366 -16.0787 
-2.25259 -2.23323 12.1128 
-53.0533 -16.3444 411.033 
-1.33172 -4.14243 9.13723 
3.08278 -0.737137 11.321 
-3.92344 1.88096 -0.376698 
2.80903 -0.911531 5.87933 
0 0 57.3433 
25.7591 16.0647 143.331 
0 0 48.5234 
-3.62868 7.08383 10.2736 
-24.0514 -18.8828 66.3085 
-27.4355 7.27471 117.774 
-8.96362 5.07799 63.5174 
-2.44482 -2.79372 10.6491 
0 0 13.6117 
0 0 13.6117 
0 0 52.4257 
0 0 62.8128 
0 0 13.6117 
0 0 22.3446 
0 0 13.6117 
0 0 13.6117 
0 0 56.9003 
0 0 13.6117 
-3.66763 -3.51303 14.7094 
VECTORS moment double
0 0 0 
0 0 0 
0 0 0 
0 0 0 
0 0 0 
0 0 0 
0 0 0 
0 0 0 
0 0 0 
0 0 0 
0 0 0 
0 0 0 
0 0 0 
0 0 0 
0 0 0 
0 0 0 
0 0 0 
0 0 0 
0 0 0 
0 0 0 
0 0 0 
0 0 0 
0 0 0 
0 0 0 
0 0 0 
0 0 0 
0 0 0 
0 0 0 
0 0 0 
0 0 0 
0 0 0 
0 0 0 
0 0 0 
0 0 0 
0 0 0 
0 0 0 
0 0 0 
0 0 0 
0 0 0 
0 0 0 
0 0 0 
0 0 0 
0 0 0 
0 0 0 
0 0 0 
0 0 0 
0 0 0 
0 0 0 
0 0 0 
0 0 0 
0 0 0 
0 0 0 
0 0 0 
0 0 0 
SCALARS num_collisions int 1
LOOKUP_TABLE default
1 
1 
1 
1 
1 
1 
1 
1 
1 
1 
1 
1 
1 
1 
1 
1 
1 
1 
1 
1 
1 
1 
1 
1 
1 
1 
1 
1 
1 
1 
1 
1 
1 
1 
1 
1 
1 
1 
1 
1 
1 
1 
1 
1 
1 
1 
1 
1 
1 
1 
1 
1 
1 
1 
VECTORS pos double
-0.397035 -0.395562 -0.423454 
-0.418622 -9.69481e-05 -0.428814 
-0.40295 0.19705 -0.400014 
-0.402763 0.397237 -0.40004 
-0.237072 -0.40725 -0.417225 
-0.203218 -0.00321788 -0.400017 
0.199401 -0.192584 -0.424567 
0.202651 -0.00466222 -0.424094 
0.171722 0.199502 -0.423456 
0.196913 0.396913 -0.400039 
0.39661 -0.20339 -0.400039 
0.396508 0.196508 -0.400024 
0.387052 0.408936 -0.393074 
-0.385729 -0.407268 -0.347265 
-0.39987 -0.0110936 -0.345947 
-0.402763 0.397237 -0.300064 
0.199761 -0.196409 -0.343359 
0.209783 -0.0138081 -0.348931 
0.196249 0.204126 -0.321333 
0.196913 0.396913 -0.300055 
0.39661 -0.20339 -0.300055 
0.396508 0.196508 -0.300044 
0.387803 0.397993 -0.289455 
-0.382623 -0.403864 -0.266869 
-0.402763 0.397237 -0.200086 
-0.213788 0.203901 -0.241323 
0.198964 -0.188402 -0.246309 
0.225088 0.00304348 -0.274142 
0.388159 0.39892 -0.179058 
-0.397464 0.00611328 -0.500003 
0.214002 0.000408242 -0.500092 
-0.0296635 0.431149 -0.500002 
-0.00696173 0.187272 -0.500003 
-0.227044 0.369412 -0.500003 
-0.204338 0.204201 -0.500001 
0.39661 -0.20339 -0.5 
-0.40445 -0.401136 -0.500013 
0.396508 0.196508 -0.5 
0.211191 -0.429641 -0.500004 
0.191727 0.227402 -0.500014 
0.214161 -0.19827 -0.500033 
0.401544 0.403546 -0.500015 
-0.0055573 -0.388066 -0.500003 
0.396488 -0.00351175 -0.5 
-0.403333 -0.203333 -0.5 
-0.40295 0.19705 -0.5 
-0.402763 0.397237 -0.5 
-0.203538 -0.203538 -0.5 
-0.203218 -0.00321788 -0.5 
-0.00366947 -0.203669 -0.5 
-0.00360232 -0.00360232 -0.5 
0.196913 0.396913 -0.5 
0.396713 -0.403287 -0.5 
-0.214856 -0.409134 -0.500004 
VECTORS dir_n double
-0.0286655 -0.0109799 -0.999529 
0.181348 -0.0634054 -0.981373 
1.05534e-17 0 -1 
1.73333e-17 0 -1 
-0.145593 -0.136025 -0.979949 
9.4751e-17 0 -1 
-0.275751 0.193558 -0.94154 
-0.172769 -0.0379134 -0.984232 
0.054139 0.0823754 -0.99513 
2.4986e-17 0 -1 
2.47188e-17 0 -1 
1.88479e-17 0 -1 
0.0286619 -0.0066164 -0.999567 
0.200943 0.121477 -0.972042 
-0.3501 -0.00194434 0.93671 
1.74723e-17 0 -1 
-0.18863 0.324018 -0.927055 
-0.0539157 0.0325841 -0.998014 
-0.505279 0.162553 -0.847508 
4.90918e-17 0 -1 
4.88137e-17 0 -1 
2.79164e-17 0 -1 
-0.108584 -0.0401626 -0.993276 
-0.0661744 0.116155 -0.991024 
3.06521e-17 0 -1 
-0.13609 -0.271089 0.952885 
-0.267077 0.221802 -0.937802 
-0.178325 0.0287165 -0.983552 
-0.276356 0.133799 -0.951696 
2.49452e-16 -6.23526e-17 1 
-4.64674e-17 1.67652e-16 1 
-3.06981e-17 -5.50077e-17 1 
7.19589e-17 -4.64485e-17 1 
2.60558e-15 -5.91369e-17 -1 
1.96129e-17 -2.31524e-17 1 
1.74388e-17 0 1 
-2.6081e-17 -8.68454e-17 1 
2.06086e-17 0 1 
8.31437e-17 -3.2532e-17 1 
2.43905e-16 5.18662e-17 1 
-7.1056e-17 4.85019e-17 1 
3.08997e-17 -1.48455e-16 1 
1.08771e-16 -2.54098e-17 1 
7.3466e-17 0 1 
7.3466e-17 0 1 
1.90746e-17 0 1 
1.59203e-17 0 1 
7.3466e-17 0 1 
4.47535e-17 0 1 
7.3466e-17 0 1 
7.3466e-17 0 1 
1.75746e-17 0 1 
7.3466e-17 0 1 
2.08624e-16 -6.96779e-18 1 
VECTORS dir_s double
-0.919446 0.392597 0.0220561 
0.266751 0.963678 -0.0129692 
1 0 0 
1 0 0 
0.688861 0.697016 -0.199097 
1 0 0 
0.64686 -0.687169 -0.330713 
0.879598 0.44373 -0.171494 
0.230764 0.968581 0.0927322 
1 0 0 
1 0 0 
1 0 0 
0.248072 0.968741 0.000700923 
-0.965175 -0.145124 -0.21766 
0.932648 -0.0937763 0.348388 
1 0 0 
0.482497 -0.791629 -0.37486 
0.993742 -0.0961674 -0.0568246 
0.439339 -0.796838 -0.414766 
1 0 0 
1 0 0 
1 0 0 
0.271444 0.960014 -0.0684917 
0.961843 -0.256828 -0.0943279 
1 0 0 
0.430653 0.850017 0.303329 
0.953787 -0.0782082 -0.290127 
0.974399 -0.133933 -0.180576 
0.77708 -0.551562 -0.303194 
-0.710152 -0.704048 7.46212e-17 
-0.955676 -0.29442 2.62733e-18 
-0.306055 -0.952014 -9.52587e-17 
0.972582 -0.232559 5.12157e-18 
-0.901728 0.432303 1.86777e-17 
0.951174 -0.308656 1.35981e-16 
1 0 0 
0.848513 0.529175 7.40065e-17 
1 0 0 
-0.455914 0.890024 2.24832e-17 
-0.786552 -0.617524 2.1201e-16 
-0.966597 0.2563 -8.93207e-17 
-0.87008 0.49291 8.63621e-17 
-0.658553 -0.752534 -9.33133e-18 
1 0 0 
1 0 0 
1 0 0 
1 0 0 
1 0 0 
1 0 0 
1 0 0 
1 0 0 
1 0 0 
1 0 0 
-0.722164 -0.691722 9.67456e-17 
