# vtk DataFile Version 2.0
Generated by NetDEM
ASCII 
DATASET POLYDATA
POINTS 940 double
-0.418893 -0.408289 -0.464011 
-0.430707 -0.410915 -0.393889 
-0.449512 -0.194277 -0.450028 
-0.423483 -0.113134 -0.405594 
-0.449512 -0.194277 -0.450028 
-0.450001 -0.27088 -0.385762 
-0.407988 -0.00980808 -0.462612 
-0.408353 -0.0177451 -0.386687 
-0.450019 0.109967 -0.450017 
-0.367641 0.0680842 -0.41194 
-0.438591 0.348948 -0.450047 
-0.355746 0.380066 -0.408132 
-0.438591 0.348948 -0.450047 
-0.450018 0.275211 -0.38352 
-0.27079 -0.429848 -0.459159 
-0.336251 -0.406815 -0.407352 
-0.27079 -0.429848 -0.459159 
-0.267776 -0.438248 -0.363423 
-0.305121 -0.219027 -0.450048 
-0.238555 -0.151967 -0.417487 
-0.305121 -0.219027 -0.450048 
-0.320534 -0.208368 -0.351859 
-0.192106 -0.0104547 -0.450065 
-0.239496 -0.00429314 -0.352968 
-0.192106 -0.0104547 -0.450065 
-0.126873 -0.0558742 -0.389417 
-0.172682 0.173377 -0.46389 
-0.175458 0.078356 -0.45011 
-0.172682 0.173377 -0.46389 
-0.134796 0.147959 -0.39716 
-0.254388 0.36633 -0.463402 
-0.228842 0.331995 -0.394087 
-0.0558045 -0.397038 -0.461227 
-0.091366 -0.310655 -0.451079 
-0.0558045 -0.397038 -0.461227 
-0.0870536 -0.390973 -0.396176 
-0.0558045 -0.397038 -0.461227 
0.0432878 -0.439705 -0.449368 
-0.145632 -0.1346 -0.449945 
-0.238555 -0.151967 -0.417487 
-0.145632 -0.1346 -0.449945 
-0.0556543 -0.0911117 -0.450126 
-0.0556543 -0.0911117 -0.450126 
0.0516175 -0.0958073 -0.450466 
0.0375548 0.179897 -0.452686 
0.113149 0.13941 -0.397749 
0.0375548 0.179897 -0.452686 
0.0280067 0.259755 -0.4504 
0.0375548 0.179897 -0.452686 
-0.0396923 0.221612 -0.391806 
-0.0300978 0.318854 -0.442425 
-0.114485 0.312747 -0.405174 
-0.0300978 0.318854 -0.442425 
-0.00611462 0.411723 -0.369481 
0.192974 -0.401523 -0.463024 
0.259899 -0.314612 -0.424888 
0.192974 -0.401523 -0.463024 
0.201504 -0.414379 -0.390791 
0.168928 -0.21021 -0.463134 
0.166396 -0.206365 -0.389759 
0.172638 -0.00548769 -0.462845 
0.175306 0.0156914 -0.385679 
0.172638 -0.00548769 -0.462845 
0.24959 -0.0619267 -0.449949 
0.161178 0.207852 -0.465059 
0.121551 0.301932 -0.429374 
0.161178 0.207852 -0.465059 
0.263972 0.174845 -0.443125 
0.298001 0.402907 -0.418857 
0.372125 0.439432 -0.465059 
0.298001 0.402907 -0.418857 
0.330884 0.308711 -0.412198 
0.298001 0.402907 -0.418857 
0.285056 0.369673 -0.325451 
0.450036 -0.40974 -0.450073 
0.383355 -0.45002 -0.387402 
-0.430707 -0.410915 -0.393889 
-0.416651 -0.334982 -0.316642 
-0.430707 -0.410915 -0.393889 
-0.435603 -0.441038 -0.326015 
-0.450001 -0.27088 -0.385762 
-0.416651 -0.334982 -0.316642 
-0.450012 0.449489 -0.450028 
-0.448009 0.426162 -0.352826 
-0.336251 -0.406815 -0.407352 
-0.298071 -0.319752 -0.347396 
-0.304726 0.164416 -0.465034 
-0.252551 0.189551 -0.394069 
-0.149752 0.403527 -0.450399 
-0.114485 0.312747 -0.405174 
-0.0870536 -0.390973 -0.396176 
-0.160128 -0.448447 -0.393817 
-0.0870536 -0.390973 -0.396176 
-0.0015501 -0.339725 -0.3568 
-0.0870536 -0.390973 -0.396176 
-0.162734 -0.374864 -0.337286 
-0.0377353 -0.0150324 -0.305772 
-0.00626276 -0.0234135 -0.395104 
0.0280067 0.259755 -0.4504 
0.08788 0.239047 -0.366647 
0.121551 0.301932 -0.429374 
0.0671253 0.397965 -0.40977 
0.201504 -0.414379 -0.390791 
0.196928 -0.435274 -0.320026 
0.166396 -0.206365 -0.389759 
0.218558 -0.196367 -0.309412 
0.166396 -0.206365 -0.389759 
0.154965 -0.318879 -0.399605 
0.175306 0.0156914 -0.385679 
0.161926 0.0603437 -0.331127 
0.197115 0.112812 -0.455901 
0.272613 0.0654276 -0.443123 
0.197115 0.112812 -0.455901 
0.113149 0.13941 -0.397749 
0.285056 0.369673 -0.325451 
0.196123 0.306924 -0.33885 
0.383355 -0.45002 -0.387402 
0.449996 -0.440598 -0.313463 
0.383355 -0.45002 -0.387402 
0.32948 -0.406607 -0.315202 
0.435456 -0.356132 -0.366923 
0.449891 -0.309453 -0.279675 
0.275802 -0.211218 -0.450012 
0.259899 -0.314612 -0.424888 
0.450003 0.141174 -0.40428 
0.449038 0.0517488 -0.35954 
0.42505 0.340863 -0.456378 
0.437856 0.25658 -0.459845 
0.42505 0.340863 -0.456378 
0.436091 0.371759 -0.37712 
-0.435603 -0.441038 -0.326015 
-0.433845 -0.452838 -0.243657 
-0.320534 -0.208368 -0.351859 
-0.407071 -0.173555 -0.315858 
-0.312346 -0.0206508 -0.367789 
-0.239496 -0.00429314 -0.352968 
-0.289568 0.27004 -0.450014 
-0.335997 0.238749 -0.367166 
-0.450018 0.275211 -0.38352 
-0.422898 0.242384 -0.464055 
-0.450018 0.275211 -0.38352 
-0.419019 0.260467 -0.289637 
0.183927 -0.336571 -0.299717 
0.247078 -0.295607 -0.342109 
-0.238611 -0.0572971 -0.171425 
-0.197112 -0.0737664 -0.0636423 
-0.175458 0.078356 -0.45011 
-0.270458 0.0904677 -0.404102 
-0.350179 0.331759 -0.335955 
-0.355746 0.380066 -0.408132 
-0.350179 0.331759 -0.335955 
-0.282254 0.311999 -0.280154 
0.0432878 -0.439705 -0.449368 
0.0922524 -0.45197 -0.355171 
0.207246 -0.283941 -0.136009 
0.194856 -0.246311 -0.0467499 
0.205651 0.0627371 -0.20414 
0.203639 0.13693 -0.265924 
0.205651 0.0627371 -0.20414 
0.178421 0.0398319 -0.119544 
-0.0396923 0.221612 -0.391806 
0.00881336 0.294653 -0.34752 
0.196928 -0.435274 -0.320026 
0.0922524 -0.45197 -0.355171 
0.196928 -0.435274 -0.320026 
0.260804 -0.445951 -0.244073 
0.0516175 -0.0958073 -0.450466 
0.134612 -0.0964291 -0.397718 
0.161926 0.0603437 -0.331127 
0.195315 -0.0267023 -0.28779 
0.272613 0.0654276 -0.443123 
0.32212 0.0591197 -0.372515 
0.379419 -0.109579 -0.450052 
0.450013 -0.105942 -0.379368 
0.379419 -0.109579 -0.450052 
0.345561 -0.0718224 -0.363876 
0.450003 0.233037 -0.364663 
0.448701 0.216379 -0.266091 
0.450003 0.233037 -0.364663 
0.437856 0.25658 -0.459845 
-0.433845 -0.452838 -0.243657 
-0.387715 -0.439683 -0.169495 
-0.239496 -0.00429314 -0.352968 
-0.294321 -0.0401765 -0.274039 
-0.355501 0.142821 -0.346665 
-0.367641 0.0680842 -0.41194 
-0.355501 0.142821 -0.346665 
-0.281934 0.090238 -0.304004 
-0.239415 0.0484196 -0.223727 
-0.248907 0.0397494 -0.124567 
-0.0549893 0.128114 -0.444314 
-0.134796 0.147959 -0.39716 
-0.355746 0.380066 -0.408132 
-0.307337 0.448747 -0.357994 
0.0922524 -0.45197 -0.355171 
0.0753057 -0.413162 -0.272784 
0.0922524 -0.45197 -0.355171 
0.00627495 -0.435465 -0.355542 
0.0177454 0.0473797 -0.45025 
-0.00626276 -0.0234135 -0.395104 
0.0177454 0.0473797 -0.45025 
0.0294175 0.042727 -0.355007 
0.260804 -0.445951 -0.244073 
0.30079 -0.386703 -0.212589 
0.154965 -0.318879 -0.399605 
0.0824475 -0.343036 -0.440721 
0.154965 -0.318879 -0.399605 
0.0984431 -0.284417 -0.304968 
0.122128 0.0670636 -0.268921 
0.0466885 0.120431 -0.329992 
0.263972 0.174845 -0.443125 
0.338817 0.209554 -0.401951 
0.144684 0.450033 -0.45003 
0.139983 0.448777 -0.350167 
0.450013 -0.105942 -0.379368 
0.450007 -0.14897 -0.289113 
0.450013 -0.105942 -0.379368 
0.435243 -0.0345499 -0.310933 
0.386623 0.161161 -0.328666 
0.338817 0.209554 -0.401951 
0.436091 0.371759 -0.37712 
0.401347 0.302209 -0.310856 
0.436091 0.371759 -0.37712 
0.440772 0.406518 -0.29897 
-0.387715 -0.439683 -0.169495 
-0.367472 -0.361548 -0.118578 
-0.367472 -0.361548 -0.118578 
-0.290279 -0.354252 -0.0575215 
-0.367472 -0.361548 -0.118578 
-0.393283 -0.297239 -0.0612444 
-0.294321 -0.0401765 -0.274039 
-0.356389 0.0113079 -0.240006 
-0.448009 0.426162 -0.352826 
-0.377148 0.449988 -0.286427 
-0.248907 0.0397494 -0.124567 
-0.233315 0.00322751 -0.0327972 
0.355624 -0.211433 -0.0423748 
0.332907 -0.161751 0.0413835 
0.355624 -0.211433 -0.0423748 
0.449933 -0.199262 -0.0732816 
0.355624 -0.211433 -0.0423748 
0.322209 -0.267534 0.0333501 
0.0330698 -0.119028 -0.350263 
0.0153796 -0.0968865 -0.254385 
0.0330698 -0.119028 -0.350263 
0.0973833 -0.0410963 -0.330221 
-0.00298102 0.436917 -0.464348 
-0.00611462 0.411723 -0.369481 
0.30079 -0.386703 -0.212589 
0.352514 -0.301075 -0.247228 
0.259899 -0.314612 -0.424888 
0.247078 -0.295607 -0.342109 
0.0398253 0.0692584 -0.25917 
0.0123387 -0.00331144 -0.219321 
0.0398253 0.0692584 -0.25917 
-0.00299452 0.110894 -0.193044 
0.245248 0.240054 -0.380126 
0.196123 0.306924 -0.33885 
0.245248 0.240054 -0.380126 
0.231417 0.184006 -0.323782 
0.348948 0.450027 -0.270009 
0.440772 0.406518 -0.29897 
0.348948 0.450027 -0.270009 
0.382195 0.426968 -0.193869 
0.450311 -0.208627 -0.381405 
0.388229 -0.226283 -0.305286 
-0.462123 -0.452458 -0.125325 
-0.439241 -0.457451 -0.00983576 
-0.320218 -0.139412 -0.279425 
-0.228317 -0.170975 -0.255823 
-0.320218 -0.139412 -0.279425 
-0.321946 -0.111555 -0.183412 
-0.320218 -0.139412 -0.279425 
-0.338828 -0.225346 -0.2318 
-0.307337 0.448747 -0.357994 
-0.377148 0.449988 -0.286427 
-0.307337 0.448747 -0.357994 
-0.229502 0.449922 -0.295246 
-0.162734 -0.374864 -0.337286 
-0.225776 -0.349164 -0.240207 
-0.0849746 -0.222782 -0.450008 
-0.091366 -0.310655 -0.451079 
-0.134796 0.147959 -0.39716 
-0.126518 0.188963 -0.333525 
-0.134796 0.147959 -0.39716 
-0.190592 0.0762912 -0.342222 
-0.228842 0.331995 -0.394087 
-0.207095 0.272118 -0.331664 
0.449977 0.0528485 -0.159723 
0.450113 0.0843055 -0.254575 
0.449977 0.0528485 -0.159723 
0.426603 0.111904 -0.0825026 
0.0466885 0.120431 -0.329992 
0.019638 0.19959 -0.300415 
-0.114485 0.312747 -0.405174 
-0.106015 0.275744 -0.325439 
0.237883 -0.1405 -0.39221 
0.33488 -0.172662 -0.370488 
0.237883 -0.1405 -0.39221 
0.134612 -0.0964291 -0.397718 
0.110833 -0.0232102 -0.218171 
0.145898 -0.037427 -0.132616 
0.33488 -0.172662 -0.370488 
0.388229 -0.226283 -0.305286 
0.24959 -0.0619267 -0.449949 
0.245918 -0.0573564 -0.35016 
-0.439241 -0.457451 -0.00983576 
-0.420919 -0.382117 0.0654546 
-0.423483 -0.113134 -0.405594 
-0.407071 -0.173555 -0.315858 
-0.207095 0.272118 -0.331664 
-0.219269 0.206762 -0.256987 
0.129956 -0.450016 -0.0909548 
0.154582 -0.390927 -0.0108936 
-0.106015 0.275744 -0.325439 
-0.167611 0.351417 -0.327335 
-0.0015501 -0.339725 -0.3568 
0.00627495 -0.435465 -0.355542 
-0.0015501 -0.339725 -0.3568 
-0.0439257 -0.261897 -0.303503 
0.118959 -0.238089 -0.146182 
0.177315 -0.189239 -0.224043 
0.118959 -0.238089 -0.146182 
0.0422806 -0.186256 -0.118092 
0.019638 0.19959 -0.300415 
0.08788 0.239047 -0.366647 
0.00881336 0.294653 -0.34752 
-0.0282498 0.270558 -0.245365 
[...]
POINT_DATA 940
SCALARS id int 1
LOOKUP_TABLE default
0
25
1
152
1
26
2
27
3
103
4
84
4
54
5
30
5
105
6
31
6
51
7
77
7
81
8
58
8
133
9
134
10
135
10
35
10
60
11
31
11
12
12
66
13
69
13
38
13
63
14
139
14
189
15
116
15
40
16
41
17
42
17
147
18
39
18
93
19
24
19
98
19
44
20
45
25
226
25
50
26
226
29
104
30
250
33
128
34
139
35
80
35
160
35
130
37
108
38
269
39
89
40
65
41
216
41
91
42
67
43
68
43
69
44
143
45
145
45
120
46
195
47
116
48
148
49
74
49
99
50
75
51
311
52
77
53
154
54
109
54
179
56
241
57
427
58
78
59
84
59
283
60
85
61
465
62
193
62
417
63
164
65
85
65
90
66
166
67
267
68
172
72
96
72
171
73
273
73
74
75
100
77
102
79
103
79
307
82
107
83
133
84
129
85
165
85
185
88
108
88
113
90
115
91
110
91
256
92
138
93
123
94
169
96
196
96
222
97
123
99
173
99
149
100
101
101
300
101
302
102
177
104
204
107
407
111
446
111
246
111
346
112
186
112
191
114
189
115
270
116
241
117
312
117
238
118
143
118
168
119
149
119
199
121
170
125
150
126
151
126
357
126
401
129
204
129
282
130
205
131
135
133
183
133
203
134
153
137
272
137
373
138
163
139
158
141
146
141
166
142
292
146
170
147
322
150
350
152
311
153
253
156
315
158
209
160
185
160
206
161
341
161
360
163
269
164
188
165
190
166
191
168
223
168
198
170
271
172
197
173
198
174
224
177
301
178
303
179
279
179
201
181
251
182
333
182
358
182
359
183
213
184
263
184
282
185
210
186
336
186
411
186
312
188
212
188
288
189
239
189
263
190
285
192
271
193
268
194
344
194
319
197
272
197
223
197
297
199
319
201
354
202
233
202
279
202
257
202
253
203
307
204
254
205
225
206
251
207
336
208
233
209
234
210
235
212
238
212
287
216
341
217
410
217
242
217
266
217
391
218
243
224
249
224
299
225
300
228
257
228
429
229
429
229
454
229
304
230
280
231
462
231
337
231
383
232
381
232
356
232
406
233
388
234
308
235
281
236
406
238
337
242
370
242
372
244
444
244
319
246
371
246
296
247
367
247
343
249
424
251
331
254
304
257
332
259
282
262
344
262
289
263
264
267
322
268
368
268
293
271
297
273
348
273
298
275
300
275
455
276
361
277
357
278
327
278
301
280
305
285
385
285
310
286
439
286
359
287
338
291
461
292
410
292
317
292
417
298
398
299
419
300
381
300
355
301
377
302
376
305
306
306
406
308
332
310
335
311
351
314
333
314
339
315
466
316
472
316
321
316
422
317
437
318
374
324
424
326
401
327
353
327
453
327
354
330
335
331
405
336
341
337
432
338
413
338
363
343
374
346
466
346
416
349
448
349
474
350
400
352
354
353
402
354
428
356
427
356
357
358
409
361
405
362
368
367
472
367
392
369
494
370
420
372
392
373
422
376
426
380
480
383
384
384
447
385
486
387
417
389
439
389
469
389
489
390
486
393
494
393
468
393
418
397
398
400
475
404
483
405
461
407
457
409
434
410
417
410
441
414
464
419
449
422
423
423
448
424
474
432
487
434
479
438
462
441
488
444
469
454
479
456
481
457
462
459
479
462
482
463
464
468
473
472
492
482
485
494
499
125
0
50
0
29
0
127
0
450
0
376
0
54
0
402
0
278
0
454
0
3
0
351
0
26
0
304
0
73
1
196
1
272
1
20
1
296
1
48
1
474
1
121
1
96
1
316
1
298
1
122
1
174
1
149
1
125
2
75
2
150
2
80
2
280
2
245
2
156
2
445
2
90
2
45
2
455
2
100
2
286
3
419
3
499
3
94
3
184
3
119
3
124
3
324
3
304
3
489
3
17
4
122
4
49
4
2
4
180
4
83
4
0
4
74
4
88
4
71
4
10
4
64
4
114
4
55
4
16
4
24
4
70
4
47
4
131
4
109
4
8
4
5
4
15
4
4
4
66
4
18
4
87
4
9
4
3
4
187
4
12
4
68
4
38
4
6
4
14
4
23
4
13
4
72
4
43
4
53
4
20
4
33
4
110
4
22
4
29
4
1
4
94
4
21
4
34
4
7
4
CELL_DATA 470
VECTORS force double
13.573 13.3608 -108.306 
10.6821 -13.9856 -31.1262 
7.91165 8.26855 -17.5594 
-75.3814 330.354 570.225 
510.591 648.607 904.153 
-27.5741 26.891 127.045 
-119.386 -22.3682 393.731 
3.79886 -5.17429 -15.3939 
-1.17401 -0.864514 -13.0839 
157.44 -23.1624 -74.9296 
138.396 10.2428 -99.467 
-149.176 -2.18632 -52.6723 
-131.694 31.4088 65.9497 
14.5773 -0.0287149 165.845 
2.53554 47.0182 230.905 
-98.976 -17.8844 -455.474 
232.96 -274.011 -41.0983 
595.288 -231.182 -642.544 
466.085 -249.969 487.41 
531.997 319.646 67.0723 
936.954 49.8374 -565.348 
-1334.62 -575.403 -1270.39 
222.513 -619.335 -82.9754 
293.768 -325.462 1157.82 
311.312 -836.912 289.511 
-66.1927 -242.243 384.776 
-268.763 -216.943 717.979 
-1.44678 -2.48036 -15.1575 
6.08306 33.1262 -150.346 
-6.21398 20.3529 -65.2945 
496.043 -476.681 -1782.45 
-103.281 -52.8609 -1916.7 
356.219 -130.342 490.13 
597.995 -189.653 683.805 
124.035 694.913 -1012.8 
721.858 367.943 -901.299 
1194.33 260.798 -880.667 
51.0936 80.454 7.30663 
0.957042 -7.77991 -7.00988 
14.677 20.0974 -86.7809 
-3.70526 9.21404 -5.02898 
-28.9437 0.693191 -59.1996 
2.03483 -3.3592 -3.71501 
-3.18012 -0.812154 -6.17058 
54.131 39.3667 -160.926 
-74.168 631.161 795.034 
-431.501 1141.62 -44.213 
-164.182 619.048 715.694 
15.4225 -24.5267 70.0643 
91.382 -302.527 -978.611 
71.2635 -57.4684 28.7012 
-19.829 47.0864 -247.58 
-27.9919 4.45184 -16.9199 
-1.07497 2.40651 -16.7681 
-134.07 -27.8945 833.939 
519.273 -84.2923 971.856 
182.734 -185.395 226.715 
-229.666 -331.795 1140.8 
-20.8414 -135.278 -89.0535 
4.84808 -26.5815 -17.4492 
3.8779 3.55925 -1.48915 
-1.13992 0.657605 -10.018 
10.2336 8.75138 -7.40569 
24.3306 161.965 604.522 
-169.679 156.878 464.55 
4.02745 19.09 -67.2351 
0.77543 4.06967 -20.852 
16.8404 -9.36564 210.355 
3.01928 1.66328 -10.7783 
74.8129 -57.763 -301.808 
-215.607 215.511 -503.004 
0.671207 0.865925 1.94934 
-2.57609 -1.52819 2.33278 
23.9809 29.2015 -95.1727 
44.3837 -1.30879 18.2806 
6.61262 -3.308 2.74367 
-999.627 1034.43 1191.58 
5.84294 -12.1787 -40.4408 
-34.9081 -21.8595 45.7489 
-113.393 -130.141 -27.3247 
-113.36 218.855 65.5878 
431.078 78.0508 343.666 
38.4802 5.60371 39.6511 
547.235 -190.049 -162.333 
39.5707 -48.2117 -513.024 
-744.151 537.712 -1652.07 
-32.9123 -0.210106 -55.1189 
5.70558 -3.85875 -14.3264 
-110.658 -2.97581 174.191 
29.9433 -206.664 290.232 
-7.51151 -15.0451 -73.5764 
-64.9823 3.02655 -228.929 
1030.85 198.577 875.721 
397.9 355.438 495.499 
1.05219 2.53401 -17.6395 
-6.57794 20.6762 -4.29131 
-46.8911 -21.2533 17.3661 
-547.526 -259.112 -1647.07 
791.966 -1617.38 -1598.62 
48.9396 -11.5121 94.524 
20.4349 36.5581 54.3877 
-138.195 -132.725 -35.3185 
8.23838 8.50123 16.0296 
2.21924 1.29882 -18.0643 
518.707 82.6535 -370.906 
-396.821 139.327 -61.4331 
0.36108 -34.7706 14.5996 
-13.5306 7.82267 -22.6334 
0.956723 -7.67342 -11.9847 
-151.591 -74.9725 -16.4789 
205.906 -246.494 -439.198 
443.447 -639.227 -405.531 
10.3942 -17.2603 -23.9473 
-15.8619 -20.1736 -57.0006 
2.1957 -6.68755 -15.0093 
28.2698 -3.87253 25.3733 
-34.9144 -7.79922 -0.753459 
3.66181 9.63558 -8.7833 
1.88732 0.324553 -0.674204 
-20.6037 -9.51669 19.2448 
15.2635 9.05559 -14.2508 
14.5851 93.8034 -73.7183 
-38.0082 11.3356 0.646645 
-185.725 -245.793 279.415 
-85.966 -66.8863 2.57893 
-2.88228 -3.96256 -15.8436 
85.4031 26.6118 -388.026 
268.054 -160.426 -814.646 
224.594 -545.764 1197.68 
1817.98 -2300.09 2009.49 
369.8 -108.566 -999.641 
406.474 10.6263 -671.784 
93.151 27.6458 -164.812 
9.83981 -7.81625 -23.4613 
-17.1298 292.248 217.715 
-81.1943 416.773 87.9864 
13.9511 296.08 255.912 
-12.8593 -30.1214 -66.7753 
-64.8491 -12.4638 -7.84977 
260.31 123.372 -281.969 
3.50978 35.2172 -8.79309 
-103.682 29.9718 -243.394 
-92.5539 76.1112 -111.782 
23.1583 -85.0634 174.351 
-3743.02 -777.612 -986.355 
-360.683 -79.6576 -201.135 
-115.12 -7.83085 312.66 
218.379 -39.0297 -356.999 
113.21 -186.15 -156.297 
770.715 88.7479 567.05 
115.137 52.2076 5.3609 
-579.577 109.891 35.8109 
652.429 -397.02 631.525 
-3.14892 -6.93509 -8.29166 
-31.9356 15.5935 -9.9982 
12.4172 63.2128 -94.6222 
-2.95792 -23.042 -14.8396 
156.295 -122.334 299.637 
1406.16 -1058.94 768.717 
-15.0358 -715.916 -348.955 
-58.0911 -33.7945 -198.486 
15.2309 1.32347 -16.5521 
-10.822 -92.3193 -138.476 
83.5678 -133.107 -221.156 
-274.413 288.002 476.344 
60.547 14.5829 47.6845 
288.475 4337.47 -2933.82 
-1208.14 3683.47 -2445.78 
236.309 45.6954 -209.33 
4020.54 3206.97 1990.78 
394.086 84.0402 257.377 
16.3556 -4.09106 -15.7661 
34.5461 -38.7787 -18.8237 
-23.3988 2.62249 7.52639 
68.4195 5.87939 309.514 
-3.40235 54.4012 228.727 
2.26292 -8.04467 25.6967 
-15.776 0.606899 101.014 
18.3948 6.17026 -18.4958 
4.75794 -0.0325819 -11.3744 
26.5665 24.043 91.0749 
-1.47344 15.0148 -56.2183 
0.72388 5.30911 -23.69 
-1113.88 785.623 -933.844 
-5.80529 -108.39 45.7515 
-13.8647 -89.0948 21.4798 
-27.506 -215.167 29.8246 
99.0159 -200.248 158.786 
109.275 -118.616 113.286 
-169.957 -221.371 -146.925 
55.129 -79.3534 -454.175 
-167.497 56.159 -427.493 
16.1898 196.219 5.84093 
84.3876 -24.3389 -62.894 
234.396 -34.2586 115.039 
386.417 -108.426 36.9469 
-5711.78 1285.78 -3970.15 
-5088.27 -1884.25 -2277.31 
-291.105 -1923.53 415.557 
87.2586 -95.1161 563.234 
-38.9975 99.1548 -205.478 
89.6241 -35.0491 31.4861 
175.248 -63.9055 86.385 
79.0682 -19.9473 -26.196 
65.3902 -8.13152 49.3173 
104.494 21.4359 78.7734 
12.1539 -2.93783 -62.7167 
-28.4551 25.0532 70.0367 
-35.3727 50.9333 34.1266 
32.7757 -94.8678 75.2248 
41.511 10.0625 -34.6943 
-325.111 235.114 -481.064 
91.8918 -11.7682 44.2576 
-76.0573 -104.634 -794.394 
44.1975 -200.552 -590.881 
150.294 54.691 -98.7994 
66.2823 46.3671 35.972 
46.9083 -56.6873 -59.56 
47.2917 -38.0606 -53.5601 
109.588 -8.45289 -45.0244 
-0.152727 -2.59485 -13.0415 
3.57907 -0.0865368 -4.62651 
9.08546 -1.33611 -6.57313 
11.0243 -24.4817 -106.018 
163.277 31.5332 35.9989 
3.66262 -17.7307 -20.247 
-4.87217 8.86687 -5.14082 
-6.04068 -0.0184354 -30.8962 
1.96199 -13.7715 50.2179 
48.1487 24.8653 69.871 
-211.348 233.032 460.019 
-490.45 136.716 742.309 
31.0772 304.862 237.522 
2.04358 8.65785 11.8906 
6.71435 -5.11233 16.0218 
-11.4497 6.54593 -8.73976 
-43.3122 6.83578 -5.59052 
-758.484 613.34 788.599 
13.2423 -32.2068 -40.9467 
-2.28206 5.19579 2.75032 
-166.023 190.92 975.833 
-9.94465 4.55175 -6.28514 
-76.4717 -50.7703 62.8461 
29.9207 -4.56438 -43.6528 
-32.7883 -2.421 12.807 
-3.21257 9.09948 -10.2191 
-22.6702 -19.3529 34.1318 
-8.36905 -4.81363 -1.36721 
2.42248 -16.4773 5.09245 
-0.291976 -0.129996 -2.81615 
14.832 -26.7572 -24.467 
11.9378 2.4765 -46.5905 
-266.757 2.14723 29.358 
12.8939 -6.79149 4.41246 
23.756 0.00478208 -48.5336 
2.81714 -2.28754 -2.21514 
-113.649 26.6494 122.978 
-27.9415 177.908 121.022 
-7.63468 -30.8451 185.57 
16.7313 -16.3301 24.145 
-340.072 -806.957 112.642 
8.51011 20.3964 -132.837 
-30.4152 -1.51763 -149.945 
12.5755 -5.88022 -41.6611 
0.595687 -9.49987 -4.12431 
-1.05982 -0.85213 -0.130157 
-16.8184 137.735 72.9773 
3.84428 -62.6958 0.3273 
28.511 -15.1839 -13.3174 
57.3897 79.1456 14.2372 
26.806 5.32605 -51.8229 
42.5325 0.148443 66.8181 
-2.26681 5.04186 -1.86614 
0.977427 0.341607 12.8209 
200.058 66.8567 260.13 
4.4923 3.20216 5.66972 
31.1823 146.175 -19.6324 
-65.4103 -48.104 -5.2118 
-353.33 -85.6409 -30.2709 
-12.6647 20.2033 58.2602 
2.50471 2.09726 -3.23001 
-16.1622 7.41292 37.3657 
-2.93167 24.5895 38.2146 
-15.2039 5.38416 -19.115 
2.73784 -3.07123 -3.87293 
14.9288 -34.467 -39.5128 
11.7643 1.14488 -10.951 
-50.9425 23.5413 -738.093 
18.3935 1.0855 -33.9041 
33.202 2.42846 -22.4462 
5.05898 -3.31488 33.2329 
-0.915855 -0.426628 -14.3238 
-19.9476 -16.2104 -9.82135 
13.0094 3.86124 -4.97645 
3.43307 2.61521 -5.51249 
8.63571 -0.463447 -5.04185 
17.6072 -2.40889 -6.8586 
8.14468 16.3117 -16.2478 
3.4478 11.8676 -0.431214 
-8.52509 -21.4415 7.17793 
-11.609 145.514 -10.5743 
3.34537 102.541 -48.0283 
46.1911 145.89 -106.357 
-10.4851 -0.0110252 7.25533 
-0.177022 3.22053 -17.0009 
17.2571 -8.08068 -213.368 
201.691 -4.97369 -413.057 
30.9341 -24.4457 -83.3744 
-26.6221 -164.547 -226.92 
-0.21572 -13.8231 13.0954 
20.2117 14.603 5.35554 
-7.4366 -8.02688 -12.6059 
0.224725 8.59068 5.78023 
-7.708 -7.95008 4.03006 
-3.8773 -4.755 -4.17075 
71.6049 147.495 -140.945 
-18.5501 -38.6509 41.2044 
-5.27919 -106.357 103.161 
6.80364 2.42086 -7.48783 
39.9023 10.9203 32.9601 
14.781 0.935777 -33.9687 
-4.53896 -2.98402 2.07755 
3.75767 1.88054 117.399 
15.4821 16.6598 -7.94305 
87.8865 45.1707 48.5467 
-1.99813 17.7177 9.70719 
0.471335 -5.55184 -3.22218 
118.14 -3.83286 -17.8819 
40.3274 13.6701 -0.274434 
-3.65581 0.0823927 -5.79931 
0.0574183 0.0400776 0.0226758 
-39.0128 -105.452 -73.237 
9.89476 25.7273 -27.0716 
0.192431 -0.158649 -0.0787171 
30.7745 34.0276 3.00939 
9.4424 -0.705359 -8.55239 
-14.734 -1.29449 21.5772 
-1.00643 0.287125 -6.17278 
-0.623885 0.327819 1.03805 
8.53442 16.2882 -10.5621 
15.4126 10.951 15.1642 
0.269636 8.70673 -41.1475 
-0.577871 -11.4009 11.5872 
-3.49623 -2.55153 -3.24679 
8.77971 9.13418 -20.9268 
-5.07727 -4.018 -13.7828 
34.3646 48.1762 -12.7236 
12.7277 -2.4919 -12.8451 
-342.309 -310.166 41.3022 
50.5733 -60.4145 4.34404 
-9.86384 4.68787 -18.8331 
-0.297274 1.71759 -1.86752 
3.08207 -11.5873 -10.2653 
9.11349 -11.6117 -17.3923 
4.96106 5.46888 0.0304198 
8.63561 -42.0694 76.538 
11.8258 -1.8839 -2.23525 
-26.0164 -52.3093 88.006 
5.10261 6.74868 -23.0863 
24.5145 -1.44686 -28.5444 
-8.22085 -1.42253 -14.4054 
0.336051 -0.383666 1.19416 
-54.8137 -188.062 41.361 
-3.33266 -0.323189 6.73091 
-20.239 141.561 16.5827 
-9.78207 1.38638 6.96532 
-5.93974 9.46572 -10.8817 
1.11927 0.349319 -2.04317 
2.19538 -35.5285 32.363 
-13.2154 -39.1433 -3.54655 
-7.3687 -3.87959 -1.67544 
9.18183 -0.112438 -6.88742 
22.725 0.907769 -30.2124 
8.02014 -3.42085 -0.109275 
1.03573 -0.553413 2.35891 
7.43507 -1.43117 7.99704 
40.9261 59.0298 -422.372 
-3.07458 29.9304 -0.793491 
35.786 -41.5369 9.66577 
-0.315964 0.917486 -0.152111 
487.539 -76.6215 -5.20718 
18.6024 7.952 -7.21239 
0.977651 0.035345 3.67215 
8.79442 -4.99562 11.9016 
-28.5866 -67.3655 194.366 
-13.9384 6.46183 -11.471 
2853.66 1526.18 -530.286 
-45.1035 1.23279 -89.2271 
-22.4826 -13.1435 26.8075 
-13.9243 -9.96603 20.5981 
-2.46938 -8.07428 9.82009 
-558.677 -49.2128 237.617 
-23.2384 3.5471 -1.60247 
-22.396 0.28054 18.086 
-5.93146 -0.760981 66.7947 
-2.38588e-09 -1.01521e-14 -2.38555e-09 
-5.90344 3.88435 16.746 
-436.5 385.803 -294.581 
-3.24325 7.69256 9.71668 
20.1386 32.7806 -4.29512 
1.71753 -1.97388 15.8635 
-81.7035 -215.061 -155.743 
16.8394 56.2733 77.1417 
2.62765 -8.7919 3.27738 
-0.587251 28.389 15.1942 
-7.83266 30.7971 -0.0482598 
-24.7255 174.958 37.7541 
23.8487 17.1579 26.3217 
0.501922 -14.5238 13.893 
-11.1739 14.4319 16.3036 
3.90819 -2.77331 8.09378 
0.189756 0.658307 7.24467 
-1.36614 6.35291 21.3183 
0.321614 -43.769 74.8656 
4.55252 -25.1216 -3.03984 
199.862 -104.836 -279.448 
-2.76338 -12.0628 2.77659 
-0.940866 -14.0319 12.1702 
3.8845 -7.84673 8.23812 
0.00781892 0.310013 4.22782 
-512.974 31.4864 -1613.33 
2.38588e-09 4.73265e-15 13.6117 
124.854 -9.62752 592.2 
169.528 67.9491 1001.33 
0.0624476 3.37079 13.9872 
3.31692 3.58882 13.7683 
-12.4286 -17.0764 122.978 
-59.8017 -165.774 -195.993 
-72.7065 -36.9376 160.739 
-3.1684 0.174928 2.06536 
507.805 -358.125 210.578 
-2.03264 -3.42719 9.42854 
-8.05089 -58.7563 136.982 
1.13261 2.01259 11.9253 
23.0298 8.70838 93.2049 
-266.385 -273.016 381.291 
1.67583e-14 -1.31862e-15 13.6117 
-0.316563 -6.25723 22.8049 
-0.250447 -15.0424 19.4878 
-55.6114 37.1588 195.241 
14.2364 -59.8266 236.652 
-1.03535 5.17307 44.5363 
1.39266 -19.7014 170.993 
22.3944 -103.12 307.535 
107.983 157.391 167.824 
160.491 149.863 755.609 
-0.00231218 0.00247123 13.4295 
-91.3915 59.8807 10.1008 
550.505 -56.0448 349.453 
-5.0415e-16 1.02355e-15 13.6117 
-1237.61 -315.872 25.2324 
-87.7861 14.6549 -719.753 
-390.614 579.251 -451.791 
120.93 22.6131 56.6434 
-230.387 232.492 553.727 
-0.595792 0.057266 9.53041 
-68.5289 319.276 122.687 
19.9249 4.00153 88.8504 
372.324 -65.7883 869.427 
-2.61046 -1.8994 25.3355 
49.7598 -1.61308 110.763 
4.665 3.75314 17.1455 
7.10471 2.84024 28.3126 
-3.43178e-15 -7.87136e-15 13.6117 
-3.30964 -1.52291 37.3904 
8.16267 5.78893 51.5702 
0.373205 71.9502 112.528 
4.68739e-15 2.89215e-15 13.6117 
-38.3295 16.7415 -43.7601 
13.4061 -12.19 164.712 
VECTORS moment double
0 0 0 
0 0 0 
0 0 0 
0 0 0 
0 0 0 
0 0 0 
0 0 0 
0 0 0 
0 0 0 
0 0 0 
0 0 0 
0 0 0 
0 0 0 
0 0 0 
0 0 0 
0 0 0 
0 0 0 
0 0 0 
0 0 0 
0 0 0 
0 0 0 
0 0 0 
0 0 0 
0 0 0 
0 0 0 
0 0 0 
0 0 0 
0 0 0 
0 0 0 
0 0 0 
0 0 0 
0 0 0 
0 0 0 
0 0 0 
0 0 0 
0 0 0 
0 0 0 
0 0 0 
0 0 0 
0 0 0 
0 0 0 
0 0 0 
0 0 0 
0 0 0 
0 0 0 
0 0 0 
0 0 0 
0 0 0 
0 0 0 
0 0 0 
0 0 0 
0 0 0 
0 0 0 
0 0 0 
0 0 0 
0 0 0 
0 0 0 
0 0 0 
0 0 0 
0 0 0 
0 0 0 
0 0 0 
0 0 0 
0 0 0 
0 0 0 
0 0 0 
0 0 0 
0 0 0 
0 0 0 
0 0 0 
0 0 0 
0 0 0 
0 0 0 
0 0 0 
0 0 0 
0 0 0 
0 0 0 
0 0 0 
0 0 0 
0 0 0 
0 0 0 
0 0 0 
0 0 0 
0 0 0 
0 0 0 
0 0 0 
0 0 0 
0 0 0 
0 0 0 
0 0 0 
0 0 0 
0 0 0 
0 0 0 
0 0 0 
0 0 0 
0 0 0 
0 0 0 
0 0 0 
0 0 0 
0 0 0 
0 0 0 
0 0 0 
0 0 0 
0 0 0 
0 0 0 
0 0 0 
0 0 0 
0 0 0 
0 0 0 
0 0 0 
0 0 0 
0 0 0 
0 0 0 
0 0 0 
0 0 0 
0 0 0 
0 0 0 
0 0 0 
0 0 0 
0 0 0 
0 0 0 
0 0 0 
0 0 0 
0 0 0 
0 0 0 
0 0 0 
0 0 0 
0 0 0 
0 0 0 
0 0 0 
0 0 0 
0 0 0 
0 0 0 
0 0 0 
0 0 0 
0 0 0 
0 0 0 
0 0 0 
0 0 0 
0 0 0 
0 0 0 
0 0 0 
0 0 0 
0 0 0 
0 0 0 
0 0 0 
0 0 0 
0 0 0 
0 0 0 
0 0 0 
0 0 0 
0 0 0 
0 0 0 
0 0 0 
0 0 0 
0 0 0 
0 0 0 
0 0 0 
0 0 0 
0 0 0 
0 0 0 
0 0 0 
0 0 0 
0 0 0 
0 0 0 
0 0 0 
0 0 0 
0 0 0 
0 0 0 
0 0 0 
0 0 0 
0 0 0 
0 0 0 
0 0 0 
0 0 0 
0 0 0 
0 0 0 
0 0 0 
0 0 0 
0 0 0 
0 0 0 
0 0 0 
0 0 0 
0 0 0 
0 0 0 
0 0 0 
0 0 0 
0 0 0 
0 0 0 
0 0 0 
0 0 0 
0 0 0 
0 0 0 
0 0 0 
0 0 0 
0 0 0 
0 0 0 
0 0 0 
0 0 0 
0 0 0 
0 0 0 
0 0 0 
0 0 0 
0 0 0 
0 0 0 
0 0 0 
0 0 0 
0 0 0 
0 0 0 
0 0 0 
0 0 0 
0 0 0 
0 0 0 
0 0 0 
0 0 0 
0 0 0 
0 0 0 
0 0 0 
0 0 0 
0 0 0 
0 0 0 
0 0 0 
0 0 0 
0 0 0 
0 0 0 
0 0 0 
0 0 0 
0 0 0 
0 0 0 
0 0 0 
0 0 0 
0 0 0 
0 0 0 
0 0 0 
0 0 0 
0 0 0 
0 0 0 
0 0 0 
0 0 0 
0 0 0 
0 0 0 
0 0 0 
0 0 0 
0 0 0 
0 0 0 
0 0 0 
0 0 0 
0 0 0 
0 0 0 
0 0 0 
0 0 0 
0 0 0 
0 0 0 
0 0 0 
0 0 0 
0 0 0 
0 0 0 
0 0 0 
0 0 0 
0 0 0 
0 0 0 
0 0 0 
0 0 0 
0 0 0 
0 0 0 
0 0 0 
0 0 0 
0 0 0 
0 0 0 
0 0 0 
0 0 0 
0 0 0 
0 0 0 
0 0 0 
0 0 0 
0 0 0 
0 0 0 
0 0 0 
0 0 0 
0 0 0 
0 0 0 
0 0 0 
0 0 0 
0 0 0 
0 0 0 
0 0 0 
0 0 0 
0 0 0 
0 0 0 
0 0 0 
0 0 0 
0 0 0 
0 0 0 
0 0 0 
0 0 0 
0 0 0 
0 0 0 
0 0 0 
0 0 0 
0 0 0 
0 0 0 
0 0 0 
0 0 0 
0 0 0 
0 0 0 
0 0 0 
0 0 0 
0 0 0 
0 0 0 
0 0 0 
0 0 0 
0 0 0 
0 0 0 
0 0 0 
0 0 0 
0 0 0 
0 0 0 
0 0 0 
0 0 0 
0 0 0 
0 0 0 
0 0 0 
0 0 0 
0 0 0 
0 0 0 
0 0 0 
0 0 0 
0 0 0 
0 0 0 
0 0 0 
0 0 0 
0 0 0 
0 0 0 
0 0 0 
0 0 0 
0 0 0 
0 0 0 
0 0 0 
0 0 0 
0 0 0 
0 0 0 
0 0 0 
0 0 0 
0 0 0 
0 0 0 
0 0 0 
0 0 0 
0 0 0 
0 0 0 
0 0 0 
0 0 0 
0 0 0 
0 0 0 
0 0 0 
0 0 0 
0 0 0 
0 0 0 
0 0 0 
0 0 0 
0 0 0 
0 0 0 
0 0 0 
0 0 0 
0 0 0 
0 0 0 
0 0 0 
0 0 0 
0 0 0 
0 0 0 
0 0 0 
0 0 0 
0 0 0 
0 0 0 
0 0 0 
0 0 0 
0 0 0 
0 0 0 
0 0 0 
0 0 0 
0 0 0 
0 0 0 
0 0 0 
0 0 0 
0 0 0 
0 0 0 
0 0 0 
0 0 0 
0 0 0 
0 0 0 
0 0 0 
0 0 0 
0 0 0 
0 0 0 
0 0 0 
0 0 0 
0 0 0 
0 0 0 
0 0 0 
0 0 0 
0 0 0 
0 0 0 
0 0 0 
0 0 0 
0 0 0 
0 0 0 
0 0 0 
0 0 0 
0 0 0 
0 0 0 
0 0 0 
0 0 0 
0 0 0 
0 0 0 
0 0 0 
0 0 0 
0 0 0 
0 0 0 
0 0 0 
0 0 0 
0 0 0 
0 0 0 
0 0 0 
0 0 0 
0 0 0 
0 0 0 
0 0 0 
0 0 0 
0 0 0 
0 0 0 
0 0 0 
0 0 0 
0 0 0 
0 0 0 
0 0 0 
0 0 0 
0 0 0 
0 0 0 
0 0 0 
0 0 0 
0 0 0 
0 0 0 
0 0 0 
0 0 0 
0 0 0 
0 0 0 
0 0 0 
0 0 0 
0 0 0 
0 0 0 
0 0 0 
0 0 0 
0 0 0 
0 0 0 
0 0 0 
0 0 0 
0 0 0 
0 0 0 
0 0 0 
0 0 0 
0 0 0 
0 0 0 
0 0 0 
0 0 0 
0 0 0 
0 0 0 
0 0 0 
0 0 0 
0 0 0 
0 0 0 
0 0 0 
SCALARS num_collisions int 1
LOOKUP_TABLE default
1 
1 
1 
1 
1 
1 
1 
1 
1 
1 
1 
1 
1 
1 
1 
1 
1 
1 
1 
1 
1 
1 
1 
1 
1 
1 
1 
1 
1 
1 
1 
1 
1 
1 
1 
1 
1 
1 
1 
1 
1 
1 
1 
1 
1 
1 
1 
1 
1 
1 
1 
1 
1 
1 
1 
1 
1 
1 
1 
1 
1 
1 
1 
1 
1 
1 
1 
1 
1 
1 
1 
1 
1 
1 
1 
1 
1 
1 
1 
1 
1 
1 
1 
1 
1 
1 
1 
1 
1 
1 
1 
1 
1 
1 
1 
1 
1 
1 
1 
1 
1 
1 
1 
1 
1 
1 
1 
1 
1 
1 
1 
1 
1 
1 
1 
1 
1 
1 
1 
1 
1 
1 
1 
1 
1 
1 
1 
1 
1 
1 
1 
1 
1 
1 
1 
1 
1 
1 
1 
1 
1 
1 
1 
1 
1 
1 
1 
1 
1 
1 
1 
1 
1 
1 
1 
1 
1 
1 
1 
1 
1 
1 
1 
1 
1 
1 
1 
1 
1 
1 
1 
1 
1 
1 
1 
1 
1 
1 
1 
1 
1 
1 
1 
1 
1 
1 
1 
1 
1 
1 
1 
1 
1 
1 
1 
1 
1 
1 
1 
1 
1 
1 
1 
1 
1 
1 
1 
1 
1 
1 
1 
1 
1 
1 
1 
1 
1 
1 
1 
1 
1 
1 
1 
1 
1 
1 
1 
1 
1 
1 
1 
1 
1 
1 
1 
1 
1 
1 
1 
1 
1 
1 
1 
1 
1 
1 
1 
1 
1 
1 
1 
1 
1 
1 
1 
1 
1 
1 
1 
1 
1 
1 
1 
1 