# vtk DataFile Version 2.0
Generated by NetDEM
ASCII 
DATASET POLYDATA
POINTS 216 double
-0.416952 -0.405414 -0.462799 
-0.403926 -0.399665 -0.388369 
-0.403333 -0.203333 -0.450033 
-0.403333 -0.203333 -0.350061 
-0.412268 -0.00759779 -0.464529 
-0.416299 -0.0104018 -0.391598 
-0.40295 0.19705 -0.450033 
-0.40295 0.19705 -0.350059 
-0.402763 0.397237 -0.450032 
-0.402763 0.397237 -0.350058 
-0.203538 -0.203538 -0.450033 
-0.203538 -0.203538 -0.350061 
-0.203218 -0.00321788 -0.450033 
-0.203218 -0.00321788 -0.350061 
-0.174463 0.191725 -0.461843 
-0.241711 0.179415 -0.401886 
-0.0241547 -0.41065 -0.45179 
-0.00696739 -0.398216 -0.366234 
-0.00366947 -0.203669 -0.450035 
-0.00366947 -0.203669 -0.350065 
-0.00360232 -0.00360232 -0.450034 
-0.00360232 -0.00360232 -0.350062 
-0.0382462 0.394563 -0.464726 
-0.00646243 0.381214 -0.376879 
0.189317 -0.398706 -0.464341 
0.188257 -0.398401 -0.391899 
0.174399 -0.212668 -0.465084 
0.194168 -0.210386 -0.392406 
0.172782 -0.0100343 -0.462489 
0.185444 -0.0155964 -0.383996 
0.158371 0.215863 -0.463525 
0.178296 0.182079 -0.377793 
0.196913 0.396913 -0.450031 
0.196913 0.396913 -0.350057 
0.396713 -0.403287 -0.450033 
0.396713 -0.403287 -0.35006 
0.39661 -0.20339 -0.450028 
0.39661 -0.20339 -0.350053 
0.396488 -0.00351175 -0.450033 
0.396488 -0.00351175 -0.35006 
0.396508 0.196508 -0.450025 
0.396508 0.196508 -0.350044 
-0.403926 -0.399665 -0.388369 
-0.404231 -0.404471 -0.316146 
-0.403333 -0.203333 -0.350061 
-0.403333 -0.203333 -0.250084 
-0.416299 -0.0104018 -0.391598 
-0.403866 -0.00450129 -0.311127 
-0.40295 0.19705 -0.350059 
-0.40295 0.19705 -0.25008 
-0.402763 0.397237 -0.350058 
-0.402763 0.397237 -0.250077 
-0.203538 -0.203538 -0.350061 
-0.203538 -0.203538 -0.250085 
-0.203218 -0.00321788 -0.350061 
-0.203218 -0.00321788 -0.250084 
-0.00696739 -0.398216 -0.366234 
0.00279356 -0.408799 -0.2754 
-0.00366947 -0.203669 -0.350065 
-0.00366947 -0.203669 -0.250091 
-0.00360232 -0.00360232 -0.350062 
-0.00360232 -0.00360232 -0.250088 
-0.00646243 0.381214 -0.376879 
0.0208456 0.386937 -0.295514 
0.188257 -0.398401 -0.391899 
0.175679 -0.39836 -0.318546 
0.194168 -0.210386 -0.392406 
0.187182 -0.198897 -0.303154 
0.185444 -0.0155964 -0.383996 
0.186194 -0.00420567 -0.309408 
0.178296 0.182079 -0.377793 
0.214349 0.172521 -0.297857 
0.196913 0.396913 -0.350057 
0.196913 0.396913 -0.250075 
0.396713 -0.403287 -0.35006 
0.396713 -0.403287 -0.250083 
0.39661 -0.20339 -0.350053 
0.39661 -0.20339 -0.250074 
0.396488 -0.00351175 -0.35006 
0.396488 -0.00351175 -0.250084 
0.396508 0.196508 -0.350044 
0.396508 0.196508 -0.250059 
-0.404231 -0.404471 -0.316146 
-0.410808 -0.403719 -0.236973 
-0.403333 -0.203333 -0.250084 
-0.403333 -0.203333 -0.150105 
-0.403866 -0.00450129 -0.311127 
-0.405934 0.00321026 -0.233439 
-0.40295 0.19705 -0.25008 
-0.40295 0.19705 -0.150101 
-0.402763 0.397237 -0.250077 
-0.402763 0.397237 -0.150091 
-0.203538 -0.203538 -0.250085 
-0.203538 -0.203538 -0.150107 
-0.203218 -0.00321788 -0.250084 
-0.203218 -0.00321788 -0.150106 
0.00279356 -0.408799 -0.2754 
0.000914136 -0.398966 -0.184529 
-0.00366947 -0.203669 -0.250091 
-0.00366947 -0.203669 -0.150113 
-0.00360232 -0.00360232 -0.250088 
-0.00360232 -0.00360232 -0.15011 
0.175679 -0.39836 -0.318546 
0.205986 -0.398334 -0.228615 
0.187182 -0.198897 -0.303154 
0.195236 -0.199821 -0.213759 
0.186194 -0.00420567 -0.309408 
0.194785 -0.00266334 -0.229718 
0.214349 0.172521 -0.297857 
0.205396 0.206816 -0.211076 
0.196913 0.396913 -0.250075 
0.196913 0.396913 -0.150084 
0.396713 -0.403287 -0.250083 
0.396713 -0.403287 -0.150105 
0.39661 -0.20339 -0.250074 
0.39661 -0.20339 -0.150087 
0.396488 -0.00351175 -0.250084 
0.396488 -0.00351175 -0.150105 
0.396508 0.196508 -0.250059 
0.396508 0.196508 -0.150078 
-0.410808 -0.403719 -0.236973 
-0.407907 -0.404057 -0.157414 
-0.403333 -0.203333 -0.150105 
-0.403333 -0.203333 -0.0501208 
-0.405934 0.00321026 -0.233439 
-0.404747 -0.00502774 -0.148295 
-0.40295 0.19705 -0.150101 
-0.40295 0.19705 -0.0501195 
-0.402763 0.397237 -0.150091 
-0.402763 0.397237 -0.0501097 
-0.203538 -0.203538 -0.150107 
-0.203538 -0.203538 -0.0501227 
-0.203218 -0.00321788 -0.150106 
-0.203218 -0.00321788 -0.050122 
0.000914136 -0.398966 -0.184529 
-0.0085145 -0.403441 -0.102349 
-0.00366947 -0.203669 -0.150113 
-0.00366947 -0.203669 -0.0501305 
-0.00360232 -0.00360232 -0.15011 
-0.00360232 -0.00360232 -0.0501257 
0.205986 -0.398334 -0.228615 
0.194586 -0.405535 -0.150198 
0.195236 -0.199821 -0.213759 
0.193623 -0.209581 -0.12648 
0.194785 -0.00266334 -0.229718 
0.188144 -0.00272244 -0.157791 
0.205396 0.206816 -0.211076 
0.19251 0.198515 -0.122541 
0.396713 -0.403287 -0.150105 
0.396713 -0.403287 -0.050122 
0.396488 -0.00351175 -0.150105 
0.396488 -0.00351175 -0.0501213 
-0.403333 -0.203333 -0.0501208 
-0.403333 -0.203333 0.0498725 
-0.0085145 -0.403441 -0.102349 
-0.00405114 -0.402844 -0.00689438 
-0.00366947 -0.203669 -0.0501305 
-0.00366947 -0.203669 0.049849 
-0.00360232 -0.00360232 -0.0501257 
-0.00360232 -0.00360232 0.0498619 
0.193623 -0.209581 -0.12648 
0.196313 -0.203498 -0.0296926 
0.19251 0.198515 -0.122541 
0.196446 0.196892 -0.0160188 
-0.256485 -0.434966 -0.460457 
-0.294171 -0.500001 -0.471905 
0.381808 0.430202 -0.452709 
0.390635 0.397501 -0.500001 
0.172782 -0.0100343 -0.462489 
0.201098 -0.0286489 -0.500013 
-0.412268 -0.00759779 -0.464529 
-0.395036 -0.0093393 -0.500016 
-0.0382462 0.394563 -0.464726 
-0.0407935 0.401685 -0.500013 
0.029167 0.160588 -0.45099 
0.0381189 0.166136 -0.500003 
-0.174463 0.191725 -0.461843 
-0.188159 0.197817 -0.500005 
0.39661 -0.20339 -0.450028 
0.39661 -0.20339 -0.5 
-0.416952 -0.405414 -0.462799 
-0.404427 -0.401159 -0.50001 
0.396508 0.196508 -0.450025 
0.396508 0.196508 -0.5 
0.189317 -0.398706 -0.464341 
0.206063 -0.401143 -0.500017 
0.158371 0.215863 -0.463525 
0.166679 0.230203 -0.500017 
0.174399 -0.212668 -0.465084 
0.190988 -0.202539 -0.500057 
-0.243299 0.369598 -0.463613 
-0.227055 0.368906 -0.499999 
-0.0241547 -0.41065 -0.45179 
0.00592018 -0.419244 -0.500027 
0.396488 -0.00351175 -0.450033 
0.396488 -0.00351175 -0.5 
-0.403333 -0.203333 -0.450033 
-0.403333 -0.203333 -0.5 
-0.40295 0.19705 -0.450033 
-0.40295 0.19705 -0.5 
-0.402763 0.397237 -0.450032 
-0.402763 0.397237 -0.5 
-0.203538 -0.203538 -0.450033 
-0.203538 -0.203538 -0.5 
-0.203218 -0.00321788 -0.450033 
-0.203218 -0.00321788 -0.5 
-0.00366947 -0.203669 -0.450035 
-0.00366947 -0.203669 -0.5 
-0.00360232 -0.00360232 -0.450034 
-0.00360232 -0.00360232 -0.5 
0.196913 0.396913 -0.450031 
0.196913 0.396913 -0.5 
0.396713 -0.403287 -0.450033 
0.396713 -0.403287 -0.5 
-0.256485 -0.434966 -0.460457 
-0.260579 -0.418869 -0.500003 
LINES 108 324
2 0 1
2 2 3
2 4 5
2 6 7
2 8 9
2 10 11
2 12 13
2 14 15
2 16 17
2 18 19
2 20 21
2 22 23
2 24 25
2 26 27
2 28 29
2 30 31
2 32 33
2 34 35
2 36 37
2 38 39
2 40 41
2 42 43
2 44 45
2 46 47
2 48 49
2 50 51
2 52 53
2 54 55
2 56 57
2 58 59
2 60 61
2 62 63
2 64 65
2 66 67
2 68 69
2 70 71
2 72 73
2 74 75
2 76 77
2 78 79
2 80 81
2 82 83
2 84 85
2 86 87
2 88 89
2 90 91
2 92 93
2 94 95
2 96 97
2 98 99
2 100 101
2 102 103
2 104 105
2 106 107
2 108 109
2 110 111
2 112 113
2 114 115
2 116 117
2 118 119
2 120 121
2 122 123
2 124 125
2 126 127
2 128 129
2 130 131
2 132 133
2 134 135
2 136 137
2 138 139
2 140 141
2 142 143
2 144 145
2 146 147
2 148 149
2 150 151
2 152 153
2 154 155
2 156 157
2 158 159
2 160 161
2 162 163
2 164 165
2 166 167
2 168 169
2 170 171
2 172 173
2 174 175
2 176 177
2 178 179
2 180 181
2 182 183
2 184 185
2 186 187
2 188 189
2 190 191
2 192 193
2 194 195
2 196 197
2 198 199
2 200 201
2 202 203
2 204 205
2 206 207
2 208 209
2 210 211
2 212 213
2 214 215
POINT_DATA 216
SCALARS id int 1
LOOKUP_TABLE default
0
25
1
26
2
27
3
28
4
29
6
31
7
32
8
33
10
35
11
36
12
37
14
39
15
40
16
41
17
42
18
43
19
44
20
45
21
46
22
47
23
48
25
50
26
51
27
52
28
53
29
54
31
56
32
57
35
60
36
61
37
62
39
64
40
65
41
66
42
67
43
68
44
69
45
70
46
71
47
72
48
73
50
75
51
76
52
77
53
78
54
79
56
81
57
82
60
85
61
86
62
87
65
90
66
91
67
92
68
93
69
94
70
95
71
96
72
97
73
98
75
100
76
101
77
102
78
103
79
104
81
106
82
107
85
110
86
111
87
112
90
115
91
116
92
117
93
118
95
120
97
122
101
126
110
135
111
136
112
137
116
141
118
143
5
2
24
4
17
4
2
4
14
4
13
4
8
4
21
4
0
4
23
4
15
4
18
4
16
4
9
4
10
4
22
4
1
4
3
4
4
4
6
4
7
4
11
4
12
4
19
4
20
4
5
4
CELL_DATA 108
VECTORS force double
-0.397014 0.577255 -22.7882 
0 0 -59.2912 
5.17112 -2.11158 -49.4297 
0 0 -55.1824 
0 0 -51.8281 
0 0 -59.4349 
0 0 -59.207 
1.0786 1.02399 -6.03073 
6.28906 -10.7171 -89.344 
0 0 -65.1777 
0 0 -61.9667 
5.80417 -0.718515 16.5449 
3.19256 -0.26636 -53.3376 
-6.2392 -15.934 -215.862 
-0.416792 -8.21971 -52.9 
-12.7393 13.0038 -41.7473 
0 0 -51.816 
0 0 -57.6625 
0 0 -55.8853 
0 0 -57.9448 
0 0 -41.1102 
1.81178 -0.00405076 -13.9961 
0 0 -54.5923 
0.512345 -1.3841 -34.9133 
0 0 -50.0397 
0 0 -40.7863 
0 0 -55.6168 
0 0 -55.1354 
-1.88122 -5.90866 -62.1612 
0 0 -57.5128 
0 0 -56.8908 
4.21578 -0.700885 17.5183 
2.55522 -0.818995 -40.3282 
2.67047 0.988086 -155.76 
2.31115 -4.34458 -40.0477 
-11.8198 3.28102 -37.7444 
0 0 -33.3586 
0 0 -54.036 
0 0 -39.5718 
0 0 -54.5183 
0 0 -47.9387 
1.61393 0.066011 -3.10065 
0 0 -42.8864 
0.64826 1.34141 -18.9873 
0 0 -52.7041 
0 0 -46.927 
0 0 -45.5023 
0 0 -45.2286 
-2.49379 5.05196 -34.6361 
0 0 -45.3071 
0 0 -43.7526 
2.91773 -0.349147 -22.7613 
5.47017 11.2423 -143.225 
7.63496 1.78755 -23.7395 
0.763821 1.0208 -40.373 
0 0 -16.0051 
0 0 -48.858 
0 0 -19.2129 
0 0 -47.7502 
0 0 -62.942 
0.350112 0.0449113 0.300471 
0 0 -21.0115 
2.00995 -0.142337 -6.70079 
0 0 -31.8392 
0 0 -61.6242 
0 0 -22.6722 
0 0 -22.5917 
-2.97117 -4.74465 -22.2024 
0 0 -44.475 
0 0 -34.4242 
0.270896 0.135942 -8.20836 
-6.54184 6.23543 -126.405 
2.83906 2.93864 -9.63619 
-0.935865 -7.02465 -53.4861 
0 0 -25.4253 
0 0 -25.0737 
0 0 -109.595 
4.71519 -0.367634 -21.1253 
0 0 -49.6541 
0 0 -78.0525 
3.7457 5.28254 -40.5836 
2.44632 1.73272 -63.2828 
1.8129 4.41052 0.335948 
-0.101251 1.88204 5.22714 
1.66697 13.6329 62.4067 
-7.45141 2.10023 63.1933 
-6.53365 1.38844 -9.98041 
-1.56994 -0.667785 12.4851 
0.185399 -1.8252 19.0022 
0 0 64.9405 
1.50327 -0.876779 35.8011 
0 0 49.8139 
-4.05879 0.175301 66.7048 
-0.625192 -14.9865 53.2177 
8.92313 18.3121 230.266 
-2.73803 0.101163 12.7551 
-10.3426 11.6001 102.986 
0 0 68.3245 
0 0 69.6119 
0 0 67.4583 
0 0 66.5861 
0 0 69.6444 
0 0 69.5786 
0 0 74.7233 
0 0 71.1399 
0 0 68.4539 
0 0 68.5707 
-0.0206406 -5.36532 12.6617 
VECTORS moment double
0 0 0 
0 0 0 
0 0 0 
0 0 0 
0 0 0 
0 0 0 
0 0 0 
0 0 0 
0 0 0 
0 0 0 
0 0 0 
0 0 0 
0 0 0 
0 0 0 
0 0 0 
0 0 0 
0 0 0 
0 0 0 
0 0 0 
0 0 0 
0 0 0 
0 0 0 
0 0 0 
0 0 0 
0 0 0 
0 0 0 
0 0 0 
0 0 0 
0 0 0 
0 0 0 
0 0 0 
0 0 0 
0 0 0 
0 0 0 
0 0 0 
0 0 0 
0 0 0 
0 0 0 
0 0 0 
0 0 0 
0 0 0 
0 0 0 
0 0 0 
0 0 0 
0 0 0 
0 0 0 
0 0 0 
0 0 0 
0 0 0 
0 0 0 
0 0 0 
0 0 0 
0 0 0 
0 0 0 
0 0 0 
0 0 0 
0 0 0 
0 0 0 
0 0 0 
0 0 0 
0 0 0 
0 0 0 
0 0 0 
0 0 0 
0 0 0 
0 0 0 
0 0 0 
0 0 0 
0 0 0 
0 0 0 
0 0 0 
0 0 0 
0 0 0 
0 0 0 
0 0 0 
0 0 0 
0 0 0 
0 0 0 
0 0 0 
0 0 0 
0 0 0 
0 0 0 
0 0 0 
0 0 0 
0 0 0 
0 0 0 
0 0 0 
0 0 0 
0 0 0 
0 0 0 
0 0 0 
0 0 0 
0 0 0 
0 0 0 
0 0 0 
0 0 0 
0 0 0 
0 0 0 
0 0 0 
0 0 0 
0 0 0 
0 0 0 
0 0 0 
0 0 0 
0 0 0 
0 0 0 
0 0 0 
0 0 0 
SCALARS num_collisions int 1
LOOKUP_TABLE default
1 
1 
1 
1 
1 
1 
1 
1 
1 
1 
1 
1 
1 
1 
1 
1 
1 
1 
1 
1 
1 
1 
1 
1 
1 
1 
1 
1 
1 
1 
1 
1 
1 
1 
1 
1 
1 
1 
1 
1 
1 
1 
1 
1 
1 
1 
1 
1 
1 
1 
1 
1 
1 
1 
1 
1 
1 
1 
1 
1 
1 
1 
1 
1 
1 
1 
1 
1 
1 
1 
1 
1 
1 
1 
1 
1 
1 
1 
1 
1 
1 
1 
1 
1 
1 
1 
1 
1 
1 
1 
1 
1 
1 
1 
1 
1 
1 
1 
1 
1 
1 
1 
1 
1 
1 
1 
1 
1 
VECTORS pos double
-0.392105 -0.401318 -0.423944 
-0.403333 -0.203333 -0.400047 
-0.402576 -0.00440821 -0.425314 
-0.40295 0.19705 -0.400046 
-0.402763 0.397237 -0.400045 
-0.203538 -0.203538 -0.400047 
-0.203218 -0.00321788 -0.400047 
-0.214373 0.193224 -0.441193 
0.000607128 -0.410715 -0.421983 
-0.00366947 -0.203669 -0.400049 
-0.00360232 -0.00360232 -0.400048 
-0.0177192 0.394197 -0.427291 
0.207376 -0.407391 -0.423302 
0.193809 -0.197616 -0.42663 
0.209139 -0.0100942 -0.425259 
0.173836 0.207889 -0.423765 
0.196913 0.396913 -0.400044 
0.396713 -0.403287 -0.400046 
0.39661 -0.20339 -0.40004 
0.396488 -0.00351175 -0.400046 
0.396508 0.196508 -0.400034 
-0.389201 -0.403793 -0.349077 
-0.403333 -0.203333 -0.300072 
-0.402324 8.10049e-05 -0.347322 
-0.40295 0.19705 -0.300069 
-0.402763 0.397237 -0.300067 
-0.203538 -0.203538 -0.300072 
-0.203218 -0.00321788 -0.300072 
-0.000162967 -0.402255 -0.327594 
-0.00366947 -0.203669 -0.300077 
-0.00360232 -0.00360232 -0.300074 
0.0134238 0.396459 -0.329245 
0.197709 -0.402077 -0.347468 
0.19881 -0.18612 -0.343854 
0.214246 -0.00469029 -0.349064 
0.213058 0.19119 -0.340293 
0.196913 0.396913 -0.300066 
0.396713 -0.403287 -0.300071 
0.39661 -0.20339 -0.300063 
0.396488 -0.00351175 -0.300071 
0.396508 0.196508 -0.30005 
-0.387811 -0.397725 -0.26852 
-0.403333 -0.203333 -0.200094 
-0.393694 0.00322951 -0.266345 
-0.40295 0.19705 -0.200089 
-0.402763 0.397237 -0.200083 
-0.203538 -0.203538 -0.200095 
-0.203218 -0.00321788 -0.200094 
0.00798886 -0.396432 -0.227902 
-0.00366947 -0.203669 -0.200101 
-0.00360232 -0.00360232 -0.200098 
0.206134 -0.398536 -0.268111 
0.195178 -0.190005 -0.250002 
0.215805 0.00952688 -0.273118 
0.222826 0.195637 -0.259309 
0.196913 0.396913 -0.200079 
0.396713 -0.403287 -0.200093 
0.39661 -0.20339 -0.20008 
0.396488 -0.00351175 -0.200093 
0.396508 0.196508 -0.200066 
-0.397099 -0.416335 -0.193757 
-0.403333 -0.203333 -0.100112 
-0.398541 -0.0150725 -0.187271 
-0.40295 0.19705 -0.100109 
-0.402763 0.397237 -0.100098 
-0.203538 -0.203538 -0.100114 
-0.203218 -0.00321788 -0.100113 
0.0121639 -0.412203 -0.152658 
-0.00366947 -0.203669 -0.10012 
-0.00360232 -0.00360232 -0.100117 
0.176324 -0.405146 -0.1952 
0.196398 -0.200394 -0.16509 
0.178503 -0.00532619 -0.194573 
0.210315 0.198748 -0.175207 
0.396713 -0.403287 -0.100112 
0.396488 -0.00351175 -0.100112 
-0.403333 -0.203333 -0.000120825 
0.0110572 -0.389696 -0.057793 
-0.00366947 -0.203669 -0.000138843 
-0.00360232 -0.00360232 -0.000129122 
0.207631 -0.193913 -0.0713553 
0.207603 0.208368 -0.0680833 
-0.294171 -0.500001 -0.471905 
0.390635 0.397501 -0.500001 
0.201098 -0.0286489 -0.500013 
-0.395036 -0.0093393 -0.500016 
-0.0407935 0.401685 -0.500013 
0.0381189 0.166136 -0.500003 
-0.188159 0.197817 -0.500005 
0.39661 -0.20339 -0.5 
-0.404427 -0.401159 -0.50001 
0.396508 0.196508 -0.5 
0.206063 -0.401143 -0.500017 
0.166679 0.230203 -0.500017 
0.190988 -0.202539 -0.500057 
-0.227055 0.368906 -0.499999 
0.00592018 -0.419244 -0.500027 
0.396488 -0.00351175 -0.5 
-0.403333 -0.203333 -0.5 
-0.40295 0.19705 -0.5 
-0.402763 0.397237 -0.5 
-0.203538 -0.203538 -0.5 
-0.203218 -0.00321788 -0.5 
-0.00366947 -0.203669 -0.5 
-0.00360232 -0.00360232 -0.5 
0.196913 0.396913 -0.5 
0.396713 -0.403287 -0.5 
-0.260579 -0.418869 -0.500003 
VECTORS dir_n double
-0.0430324 -0.00269852 -0.99907 
1.68659e-17 0 -1 
0.212338 -0.0165089 -0.977057 
1.81217e-17 0 -1 
1.92945e-17 0 -1 
1.68251e-17 0 -1 
1.68899e-17 0 -1 
0.65282 0.405606 -0.639774 
-0.326833 0.0927329 -0.940521 
1.53427e-17 0 -1 
1.61377e-17 0 -1 
0.0981715 -0.278746 0.955334 
0.216809 -0.0169919 -0.976066 
-0.247223 0.180657 -0.951969 
-0.150626 -0.00278766 -0.988587 
0.153802 0.0703737 -0.985592 
1.9299e-17 0 -1 
1.73423e-17 0 -1 
1.78938e-17 0 -1 
1.72578e-17 0 -1 
2.43249e-17 0 -1 
0.185275 0.115225 -0.975908 
1.83176e-17 0 -1 
0.209103 -0.0985156 -0.972919 
1.99841e-17 0 -1 
2.45181e-17 0 -1 
1.79802e-17 0 -1 
1.81372e-17 0 -1 
-0.507157 0.25494 -0.823285 
1.73874e-17 0 -1 
1.75775e-17 0 -1 
0.10278 -0.0837263 0.991174 
0.412215 0.0904408 -0.906587 
-0.237289 0.23986 -0.941361 
-0.0820407 0.00604011 -0.996611 
-0.596779 0.12466 -0.792663 
2.99773e-17 0 -1 
1.85062e-17 0 -1 
2.52705e-17 0 -1 
1.83425e-17 0 -1 
2.086e-17 0 -1 
0.202086 0.170445 -0.964422 
2.33174e-17 0 -1 
0.317131 -0.0879748 -0.944292 
1.89738e-17 0 -1 
2.13097e-17 0 -1 
2.19769e-17 0 -1 
2.21099e-17 0 -1 
-0.4357 0.0399341 -0.899205 
2.20716e-17 0 -1 
2.28558e-17 0 -1 
-0.440669 0.00223269 -0.897667 
-0.31178 0.432705 -0.845908 
-0.142333 -0.0333451 -0.989257 
-0.304201 -0.200619 -0.931243 
6.24802e-17 0 -1 
2.04675e-17 0 -1 
5.20483e-17 0 -1 
2.09423e-17 0 -1 
1.58876e-17 0 -1 
-0.228214 -0.18395 0.956076 
4.75931e-17 0 -1 
0.314034 0.258555 -0.913527 
3.14079e-17 0 -1 
1.62274e-17 0 -1 
4.41069e-17 0 -1 
4.4264e-17 0 -1 
-0.270406 0.258866 -0.927291 
2.24845e-17 0 -1 
2.90493e-17 0 -1 
0.170756 0.112453 -0.978875 
-0.176274 0.556438 -0.811976 
0.128091 0.0722275 -0.989129 
-0.257771 0.044563 -0.965178 
3.93308e-17 0 -1 
3.98824e-17 0 -1 
9.12455e-18 0 -1 
-0.214537 0.118822 -0.969461 
2.01393e-17 0 -1 
1.28119e-17 0 -1 
-0.373889 0.0744031 -0.924484 
-0.219883 0.166083 -0.961285 
1.61459e-16 1 -8.7046e-17 
1.72466e-16 -2.36538e-17 1 
-2.99142e-18 -4.47561e-17 1 
-3.14682e-17 2.55815e-17 1 
8.26612e-17 6.09383e-17 -1 
1.44371e-16 2.54595e-17 1 
3.78691e-17 -4.58701e-17 1 
1.53987e-17 0 1 
7.16396e-17 -2.6132e-17 1 
2.00747e-17 0 1 
-7.98755e-17 -1.11502e-17 1 
3.90563e-18 -3.25825e-17 1 
-5.32644e-17 1.07257e-16 1 
2.9366e-18 1.34613e-17 1 
3.60143e-17 -9.64479e-18 1 
1.4636e-17 0 1 
1.43654e-17 0 1 
1.4824e-17 0 1 
1.50182e-17 0 1 
1.43586e-17 0 1 
1.43722e-17 0 1 
1.33827e-17 0 1 
1.40568e-17 0 1 
1.46084e-17 0 1 
1.45835e-17 0 1 
1.23107e-16 8.7046e-17 1 
VECTORS dir_s double
0.674058 0.738026 -0.0310268 
1 0 0 
-0.951446 -0.231512 -0.20286 
1 0 0 
1 0 0 
1 0 0 
1 0 0 
-0.584337 -0.267817 -0.766044 
0.824361 -0.458703 -0.331694 
1 0 0 
1 0 0 
0.725182 0.677456 0.123146 
-0.973229 0.0743683 -0.217473 
0.612883 -0.73181 -0.29804 
0.675826 -0.73012 -0.100914 
-0.875771 0.471613 -0.10299 
1 0 0 
1 0 0 
1 0 0 
1 0 0 
1 0 0 
-0.42746 -0.884773 -0.185618 
1 0 0 
-0.932679 0.278939 -0.228699 
1 0 0 
1 0 0 
1 0 0 
1 0 0 
0.650059 -0.514043 -0.559627 
1 0 0 
1 0 0 
0.94619 0.315625 -0.0714538 
-0.862649 -0.281386 -0.420308 
0.695593 -0.634489 -0.337007 
0.770246 -0.634191 -0.06725 
0.786726 -0.103433 -0.608575 
1 0 0 
1 0 0 
1 0 0 
1 0 0 
1 0 0 
0.878161 -0.467498 0.101388 
1 0 0 
-0.820445 0.473987 -0.319697 
1 0 0 
1 0 0 
1 0 0 
1 0 0 
0.868645 0.280415 -0.408439 
1 0 0 
1 0 0 
0.897208 -0.0309664 -0.440521 
0.612422 -0.589161 -0.527095 
0.963201 0.225553 -0.146187 
0.762108 0.53526 -0.364263 
1 0 0 
1 0 0 
1 0 0 
1 0 0 
1 0 0 
0.944921 0.194783 0.263028 
1 0 0 
-0.0504048 -0.956306 -0.28799 
1 0 0 
1 0 0 
1 0 0 
1 0 0 
0.228668 -0.918341 -0.323049 
1 0 0 
1 0 0 
-0.80316 -0.559605 -0.204391 
0.183215 -0.791931 -0.582476 
0.567979 0.812248 0.132864 
0.775999 -0.585607 -0.234285 
1 0 0 
1 0 0 
1 0 0 
0.929512 -0.280002 -0.240015 
1 0 0 
1 0 0 
0.922195 0.13602 -0.362016 
0.850812 -0.449435 -0.272263 
0.98326 8.00391e-17 0.182207 
-0.0537207 0.998556 2.26074e-17 
0.121372 0.992607 4.67331e-17 
-0.962498 0.271287 -5.24591e-17 
-0.978158 0.207864 2.9819e-17 
-0.920213 -0.391419 6.91125e-17 
0.101057 -0.994881 -4.4144e-17 
1 0 0 
0.863812 -0.503815 -5.09207e-17 
1 0 0 
-0.999069 0.0431504 -9.42975e-17 
-0.0416808 -0.999131 -3.31746e-17 
0.438043 0.898954 -7.11846e-17 
-0.999318 0.0369223 -7.59088e-17 
-0.665493 0.746404 2.47042e-17 
1 0 0 
1 0 0 
1 0 0 
1 0 0 
1 0 0 
1 0 0 
1 0 0 
1 0 0 
1 0 0 
1 0 0 
-0.00384701 -0.999993 8.72151e-17 
