# vtk DataFile Version 2.0
Generated by NetDEM
ASCII 
DATASET POLYDATA
POINTS 352 double
-0.418516 -0.405231 -0.463327 
-0.419892 -0.400341 -0.388181 
-0.408362 -0.00592567 -0.462886 
-0.393861 -0.00356324 -0.385107 
-0.448742 0.120983 -0.450012 
-0.45 0.175727 -0.366344 
-0.449325 0.345381 -0.450025 
-0.355791 0.368538 -0.403067 
-0.449325 0.345381 -0.450025 
-0.43993 0.274208 -0.38043 
-0.27094 -0.429852 -0.459122 
-0.323906 -0.411415 -0.395874 
-0.174232 0.171967 -0.463665 
-0.0657887 0.14424 -0.432154 
-0.252037 0.369322 -0.46421 
-0.218579 0.430215 -0.389442 
-0.252037 0.369322 -0.46421 
-0.355791 0.368538 -0.403067 
-0.0488041 -0.405049 -0.461839 
-0.0769871 -0.404696 -0.389869 
0.0342017 0.179651 -0.452493 
-0.034489 0.22411 -0.371799 
0.0342017 0.179651 -0.452493 
-0.0657887 0.14424 -0.432154 
-0.0321174 0.322471 -0.440543 
-0.103168 0.318046 -0.380969 
0.194193 -0.399945 -0.462023 
0.208014 -0.406979 -0.389399 
0.170493 -0.208592 -0.463145 
0.173712 -0.202725 -0.390043 
0.173022 -0.00966218 -0.462503 
0.177793 0.0011544 -0.383767 
0.160131 0.209887 -0.465106 
0.116908 0.296231 -0.413546 
0.160131 0.209887 -0.465106 
0.260433 0.177875 -0.445395 
0.305014 0.406598 -0.409414 
0.287444 0.379053 -0.314906 
0.305014 0.406598 -0.409414 
0.370124 0.43817 -0.465052 
0.44904 -0.405863 -0.450011 
0.435765 -0.353981 -0.365564 
0.428344 -0.30094 -0.45001 
0.435765 -0.353981 -0.365564 
0.381536 0.0913423 -0.450026 
0.324332 0.0647729 -0.372441 
-0.419892 -0.400341 -0.388181 
-0.420094 -0.427708 -0.31873 
-0.419892 -0.400341 -0.388181 
-0.323906 -0.411415 -0.395874 
-0.393861 -0.00356324 -0.385107 
-0.340558 -0.00430742 -0.318183 
-0.45 0.175727 -0.366344 
-0.43993 0.274208 -0.38043 
-0.323906 -0.411415 -0.395874 
-0.255166 -0.426508 -0.352399 
-0.311409 0.156182 -0.462289 
-0.278735 0.251266 -0.449766 
-0.311409 0.156182 -0.462289 
-0.274108 0.150625 -0.381316 
-0.14368 0.397557 -0.446894 
-0.103168 0.318046 -0.380969 
-0.0769871 -0.404696 -0.389869 
-0.0859562 -0.32247 -0.346786 
0.229626 -0.220448 0.0478741 
0.262872 -0.180912 0.133417 
0.023896 0.261532 -0.449527 
0.116908 0.296231 -0.413546 
0.116908 0.296231 -0.413546 
0.0807632 0.238141 -0.346123 
0.208014 -0.406979 -0.389399 
0.198385 -0.419151 -0.314837 
0.208014 -0.406979 -0.389399 
0.291233 -0.450094 -0.363454 
0.173712 -0.202725 -0.390043 
0.169945 -0.292608 -0.365383 
0.173712 -0.202725 -0.390043 
0.242959 -0.146181 -0.361007 
0.173712 -0.202725 -0.390043 
0.150229 -0.101432 -0.336612 
0.177793 0.0011544 -0.383767 
0.166449 0.0381013 -0.319594 
0.450001 0.137304 -0.39342 
0.449987 0.23293 -0.364223 
0.424324 0.339302 -0.455889 
0.426594 0.366457 -0.375383 
0.424324 0.339302 -0.455889 
0.439121 0.255717 -0.459788 
-0.420094 -0.427708 -0.31873 
-0.425002 -0.439908 -0.244329 
-0.340558 -0.00430742 -0.318183 
-0.295259 0.0129774 -0.256673 
-0.182356 -0.370996 -0.452481 
-0.159076 -0.445469 -0.386932 
-0.349348 0.335199 -0.330531 
-0.44976 0.380257 -0.327972 
-0.349348 0.335199 -0.330531 
-0.355791 0.368538 -0.403067 
0.0338639 -0.435934 -0.405284 
0.0709327 -0.347352 -0.355344 
-0.034489 0.22411 -0.371799 
-0.00600055 0.279399 -0.303897 
0.25067 0.337894 -0.461064 
0.330351 0.308847 -0.411086 
0.198385 -0.419151 -0.314837 
0.0957263 -0.447561 -0.326092 
0.166449 0.0381013 -0.319594 
0.146704 0.0557121 -0.252966 
0.291233 -0.450094 -0.363454 
0.349484 -0.414318 -0.290575 
0.378739 -0.201613 -0.450153 
0.450068 -0.208146 -0.380586 
0.449987 0.23293 -0.364223 
0.439121 0.255717 -0.459788 
-0.425002 -0.439908 -0.244329 
-0.394777 -0.445949 -0.155388 
-0.295259 0.0129774 -0.256673 
-0.36427 -0.00526667 -0.179445 
-0.295259 0.0129774 -0.256673 
-0.227911 0.0934799 -0.2307 
-0.159076 -0.445469 -0.386932 
-0.163179 -0.405352 -0.308681 
-0.159076 -0.445469 -0.386932 
-0.255166 -0.426508 -0.352399 
-0.355791 0.368538 -0.403067 
-0.312538 0.428172 -0.334447 
0.0957263 -0.447561 -0.326092 
0.0246331 -0.437802 -0.278121 
0.0750477 0.388737 -0.395788 
0.156223 0.450021 -0.450021 
0.169945 -0.292608 -0.365383 
0.0709327 -0.347352 -0.355344 
0.169945 -0.292608 -0.365383 
0.262938 -0.306233 -0.340902 
0.260433 0.177875 -0.445395 
0.234723 0.231504 -0.375888 
0.260433 0.177875 -0.445395 
0.328121 0.210041 -0.395884 
0.156223 0.450021 -0.450021 
0.207527 0.389063 -0.389607 
0.358052 -0.3175 -0.313695 
0.349484 -0.414318 -0.290575 
0.358052 -0.3175 -0.313695 
0.397626 -0.227143 -0.29781 
0.358052 -0.3175 -0.313695 
0.43759 -0.315732 -0.253158 
0.383983 0.167524 -0.32465 
0.314199 0.13982 -0.258612 
0.330351 0.308847 -0.411086 
0.328121 0.210041 -0.395884 
0.426594 0.366457 -0.375383 
0.398723 0.299069 -0.306258 
0.426594 0.366457 -0.375383 
0.39596 0.450008 -0.354185 
-0.255166 -0.426508 -0.352399 
-0.265206 -0.380305 -0.288269 
0.0824144 0.0729259 -0.208565 
0.0753245 0.116388 -0.296484 
0.234723 0.231504 -0.375888 
0.22547 0.186497 -0.314733 
0.35238 0.449044 -0.245383 
0.437615 0.400139 -0.288608 
0.35238 0.449044 -0.245383 
0.38223 0.425764 -0.164836 
0.349484 -0.414318 -0.290575 
0.434038 -0.449993 -0.250858 
0.450068 -0.208146 -0.380586 
0.397626 -0.227143 -0.29781 
0.39596 0.450008 -0.354185 
0.437615 0.400139 -0.288608 
-0.454851 -0.0271492 -0.177928 
-0.440956 -0.0633621 -0.0873141 
-0.0859562 -0.32247 -0.346786 
-0.126301 -0.358135 -0.243604 
0.202196 0.312353 -0.332315 
0.207527 0.389063 -0.389607 
0.202196 0.312353 -0.332315 
0.226687 0.325784 -0.236369 
0.344704 -0.170708 -0.361328 
0.360327 -0.0839623 -0.314107 
0.450004 0.0607607 -0.329033 
0.434051 -0.025279 -0.280638 
0.437615 0.400139 -0.288608 
0.44635 0.375535 -0.197052 
-0.440956 -0.0633621 -0.0873141 
-0.382339 0.00651279 -0.0746971 
-0.126301 -0.358135 -0.243604 
-0.131798 -0.405667 -0.154569 
-0.126301 -0.358135 -0.243604 
-0.0201287 -0.404859 -0.205941 
0.11076 -0.229225 0.341177 
0.13137 -0.159899 0.415297 
0.260774 -0.0972757 -0.0697622 
0.286034 -0.163402 -0.0131438 
0.22547 0.186497 -0.314733 
0.207988 0.151155 -0.245155 
0.397626 -0.227143 -0.29781 
0.447587 -0.15199 -0.254935 
0.360327 -0.0839623 -0.314107 
0.434051 -0.025279 -0.280638 
0.360327 -0.0839623 -0.314107 
0.36634 -0.0704258 -0.215214 
0.44635 0.375535 -0.197052 
0.421958 0.408617 -0.0949204 
-0.382339 0.00651279 -0.0746971 
-0.449989 0.0649314 -0.0409257 
-0.265206 -0.380305 -0.288269 
-0.213221 -0.390946 -0.196332 
0.0246331 -0.437802 -0.278121 
-0.0201287 -0.404859 -0.205941 
0.207988 0.151155 -0.245155 
0.236817 0.196338 -0.155089 
0.43759 -0.315732 -0.253158 
0.426728 -0.258521 -0.171879 
0.43759 -0.315732 -0.253158 
0.418461 -0.377338 -0.176759 
0.447587 -0.15199 -0.254935 
0.392456 -0.159058 -0.171901 
-0.0201287 -0.404859 -0.205941 
-0.033252 -0.389352 -0.123004 
0.188129 -0.403253 0.0758021 
0.188621 -0.36469 0.166068 
0.154806 0.228896 -0.262112 
0.176779 0.261174 -0.177352 
0.421958 0.408617 -0.0949204 
0.438832 0.398562 -0.00835246 
-0.131798 -0.405667 -0.154569 
-0.214935 -0.411454 -0.0818199 
-0.033252 -0.389352 -0.123004 
-0.00190167 -0.383836 -0.0388746 
0.449701 -0.199649 0.056231 
0.428111 -0.228216 0.149589 
0.449701 -0.199649 0.056231 
0.377576 -0.162547 0.000303818 
0.438832 0.398562 -0.00835246 
0.40658 0.44494 0.0541436 
-0.00190167 -0.383836 -0.0388746 
-0.000351563 -0.40918 0.043024 
0.377576 -0.162547 0.000303818 
0.420385 -0.188429 -0.0805502 
0.236817 0.196338 -0.155089 
0.216559 0.175186 -0.0500818 
0.392456 -0.159058 -0.171901 
0.420385 -0.188429 -0.0805502 
0.172642 -0.269922 0.421728 
0.189786 -0.381493 0.434295 
-0.45 0.175727 -0.366344 
-0.5 0.175731 -0.366341 
-0.454851 -0.0271492 -0.177928 
-0.500003 -0.0213421 -0.1904 
-0.450001 -0.199631 -0.0460514 
-0.5 -0.199601 -0.0460258 
0.450001 0.137304 -0.39342 
0.5 0.137309 -0.39342 
0.44635 0.375535 -0.197052 
0.5 0.386017 -0.177416 
0.450004 0.0607607 -0.329033 
0.5 0.0607628 -0.32903 
0.450068 -0.208146 -0.380586 
0.5 -0.208146 -0.380577 
-0.172354 -0.445738 0.140557 
-0.166884 -0.500005 0.127616 
0.0957263 -0.447561 -0.326092 
0.0502136 -0.50001 -0.350973 
0.291233 -0.450094 -0.363454 
0.291232 -0.5 -0.363443 
-0.159076 -0.445469 -0.386932 
-0.152096 -0.500004 -0.376065 
0.156223 0.450021 -0.450021 
0.156224 0.5 -0.450022 
0.39596 0.450008 -0.354185 
0.410217 0.500006 -0.377889 
0.0315934 0.0600058 -0.450248 
0.0412799 0.0434223 -0.500003 
0.173022 -0.00966218 -0.462503 
0.201445 0.00649416 -0.500003 
-0.448742 0.120983 -0.450012 
-0.44874 0.120991 -0.5 
0.424324 0.339302 -0.455889 
0.418557 0.354777 -0.500008 
-0.182356 -0.370996 -0.452481 
-0.188789 -0.389378 -0.500014 
-0.14368 0.397557 -0.446894 
-0.120291 0.416705 -0.500004 
-0.408362 -0.00592567 -0.462886 
-0.395176 -0.00852267 -0.500016 
-0.418516 -0.405231 -0.463327 
-0.404519 -0.401121 -0.500018 
0.439121 0.255717 -0.459788 
0.453925 0.253995 -0.50001 
0.338645 -0.0103961 -0.450007 
0.338646 -0.0103961 -0.5 
0.260433 0.177875 -0.445395 
0.274773 0.190492 -0.500018 
-0.0488041 -0.405049 -0.461839 
-0.0433114 -0.394139 -0.500014 
0.0342017 0.179651 -0.452493 
0.0381275 0.16416 -0.500007 
-0.449325 0.345381 -0.450025 
-0.449323 0.34538 -0.5 
-0.447433 -0.203503 -0.450042 
-0.447414 -0.203503 -0.5 
0.370124 0.43817 -0.465052 
0.362855 0.431584 -0.500004 
-0.194181 -0.0104388 -0.450007 
-0.194184 -0.010437 -0.5 
0.428344 -0.30094 -0.45001 
0.42832 -0.300936 -0.5 
-0.127589 -0.149986 -0.450007 
-0.127556 -0.149995 -0.5 
-0.0657887 0.14424 -0.432154 
-0.0945724 0.153521 -0.500002 
-0.174232 0.171967 -0.463665 
-0.179635 0.16894 -0.500004 
-0.27094 -0.429852 -0.459122 
-0.280844 -0.425109 -0.500006 
0.194193 -0.399945 -0.462023 
0.22621 -0.398539 -0.500039 
0.023896 0.261532 -0.449527 
0.0153727 0.257242 -0.500007 
0.271338 -0.192296 -0.450007 
0.271337 -0.192294 -0.5 
0.160131 0.209887 -0.465106 
0.175139 0.19736 -0.500036 
0.195972 0.112265 -0.456105 
0.208741 0.144507 -0.500001 
-0.252037 0.369322 -0.46421 
-0.2599 0.356645 -0.500033 
0.170493 -0.208592 -0.463145 
0.158013 -0.199005 -0.500011 
0.378739 -0.201613 -0.450153 
0.378734 -0.201611 -0.5 
0.381536 0.0913423 -0.450026 
0.381535 0.0913448 -0.5 
0.156223 0.450021 -0.450021 
0.156224 0.450022 -0.5 
0.274121 0.0665174 -0.443635 
0.294716 0.0531029 -0.500003 
-0.311409 0.156182 -0.462289 
-0.316165 0.148462 -0.50002 
0.25067 0.337894 -0.461064 
0.249465 0.361435 -0.500005 
-0.0321174 0.322471 -0.440543 
-0.0310839 0.335872 -0.500005 
-0.423805 0.24254 -0.463609 
-0.438942 0.247358 -0.500003 
0.44651 -0.00356428 -0.450007 
0.446495 -0.00355001 -0.5 
0.44904 -0.405863 -0.450011 
0.449013 -0.405858 -0.5 
0.0721293 -0.105037 -0.443316 
0.0898361 -0.109201 -0.500002 
LINES 176 528
2 0 1
2 2 3
2 4 5
2 6 7
2 8 9
2 10 11
2 12 13
2 14 15
2 16 17
2 18 19
2 20 21
2 22 23
2 24 25
2 26 27
2 28 29
2 30 31
2 32 33
2 34 35
2 36 37
2 38 39
2 40 41
2 42 43
2 44 45
2 46 47
2 48 49
2 50 51
2 52 53
2 54 55
2 56 57
2 58 59
2 60 61
2 62 63
2 64 65
2 66 67
2 68 69
2 70 71
2 72 73
2 74 75
2 76 77
2 78 79
2 80 81
2 82 83
2 84 85
2 86 87
2 88 89
2 90 91
2 92 93
2 94 95
2 96 97
2 98 99
2 100 101
2 102 103
2 104 105
2 106 107
2 108 109
2 110 111
2 112 113
2 114 115
2 116 117
2 118 119
2 120 121
2 122 123
2 124 125
2 126 127
2 128 129
2 130 131
2 132 133
2 134 135
2 136 137
2 138 139
2 140 141
2 142 143
2 144 145
2 146 147
2 148 149
2 150 151
2 152 153
2 154 155
2 156 157
2 158 159
2 160 161
2 162 163
2 164 165
2 166 167
2 168 169
2 170 171
2 172 173
2 174 175
2 176 177
2 178 179
2 180 181
2 182 183
2 184 185
2 186 187
2 188 189
2 190 191
2 192 193
2 194 195
2 196 197
2 198 199
2 200 201
2 202 203
2 204 205
2 206 207
2 208 209
2 210 211
2 212 213
2 214 215
2 216 217
2 218 219
2 220 221
2 222 223
2 224 225
2 226 227
2 228 229
2 230 231
2 232 233
2 234 235
2 236 237
2 238 239
2 240 241
2 242 243
2 244 245
2 246 247
2 248 249
2 250 251
2 252 253
2 254 255
2 256 257
2 258 259
2 260 261
2 262 263
2 264 265
2 266 267
2 268 269
2 270 271
2 272 273
2 274 275
2 276 277
2 278 279
2 280 281
2 282 283
2 284 285
2 286 287
2 288 289
2 290 291
2 292 293
2 294 295
2 296 297
2 298 299
2 300 301
2 302 303
2 304 305
2 306 307
2 308 309
2 310 311
2 312 313
2 314 315
2 316 317
2 318 319
2 320 321
2 322 323
2 324 325
2 326 327
2 328 329
2 330 331
2 332 333
2 334 335
2 336 337
2 338 339
2 340 341
2 342 343
2 344 345
2 346 347
2 348 349
2 350 351
POINT_DATA 352
SCALARS id int 1
LOOKUP_TABLE default
0
25
2
27
3
28
4
84
4
54
5
30
8
83
9
159
9
84
10
35
13
63
13
83
14
139
15
40
16
41
17
42
18
39
18
93
19
44
19
24
20
46
21
46
23
172
25
50
25
30
27
52
28
54
30
105
33
53
33
78
34
139
35
135
36
111
38
39
39
269
40
65
40
70
41
91
41
141
41
166
42
67
48
73
49
99
49
74
50
75
52
77
55
80
59
104
59
84
60
110
63
164
64
98
65
85
67
92
70
120
71
121
73
74
75
100
77
102
77
203
80
130
80
105
84
129
85
185
89
94
91
110
91
116
93
118
93
123
94
144
95
120
95
170
95
195
97
223
98
123
99
173
99
124
105
180
117
138
118
168
119
149
119
199
120
145
121
170
124
149
127
152
135
155
143
144
143
219
146
171
148
222
149
174
152
177
155
230
155
210
161
317
167
192
168
193
170
196
171
222
171
297
174
224
177
278
180
205
185
210
193
268
195
221
195
220
196
271
210
235
215
341
218
243
224
249
230
255
235
260
246
371
246
266
249
274
260
285
266
296
268
293
271
296
291
365
28
0
127
0
26
0
48
1
174
1
148
1
121
1
305
2
85
2
70
2
80
2
94
3
124
3
88
4
17
4
3
4
49
4
55
4
34
4
2
4
0
4
74
4
22
4
93
4
10
4
13
4
4
4
1
4
24
4
7
4
21
4
11
4
83
4
8
4
5
4
15
4
38
4
47
4
18
4
43
4
9
4
16
4
71
4
23
4
94
4
68
4
33
4
64
4
14
4
109
4
122
4
20
4
66
4
CELL_DATA 176
VECTORS force double
-2.34833 4.97517 -50.5608 
-8.44904 -1.82829 -44.7202 
-1.30467 -6.63119 -8.13614 
-5.63548 -8.25847 -6.75481 
0.680367 13.9081 -16.3544 
-2.66593 0.334271 -15.5775 
-6.83238 1.40591 -2.47633 
-5.57451 -10.2669 -20.5201 
25.4074 -9.39577 -36.2121 
13.7712 16.2393 -46.2257 
4.82318 -9.55712 -18.1331 
4.39298 3.50553 -1.15609 
1.20805 2.07146 -5.07963 
42.8671 14.7147 -122.158 
-7.52314 10.3051 -31.0718 
-1.15962 -4.62908 -8.93228 
306.514 -30.0835 -22.9912 
-39.3437 -7.26558 -268.345 
3.35773 2.51703 -7.68175 
-6.54864 -3.75031 16.4318 
0.552702 -2.2208 -7.83927 
-0.261362 1.74674 -5.86459 
4.44596 1.21564 -11.873 
1.22801 3.96341 -25.0259 
-2.09368 0.507361 -15.6342 
-9.02961 -2.77062 -30.6357 
-0.0770222 -12.4343 0.658585 
-4.49564 -0.492474 -15.5907 
-1.02833 0.951638 80.6902 
-140.032 42.9535 -554.907 
1.08615 1.74028 -2.8445 
3.18922 2.82434 -28.5354 
10.2782 22.3317 51.8308 
143.582 -214.643 40.0118 
-273.198 31.4134 -70.8161 
56.9014 9.55107 -112.697 
7.07105 1.02952 12.084 
-1.13426 10.2015 -15.2492 
-4.12919 0.041382 -6.78211 
1.3269 0.0548451 0.683978 
2.66096 -3.30741 -11.5084 
8.69764 -314.401 399.912 
35.4197 -294.898 -340.28 
2.52798 84.3684 -789.002 
0.887012 3.36403 -26.4445 
-8.66061 -4.62016 -14.8076 
-4.99677 16.2572 -42.254 
4.47826 0.0910441 -7.0638 
-17.6841 3.72613 16.6046 
-1.69822 0.107083 -2.60243 
-9.05536 -26.6937 -23.2603 
-11.8643 15.1733 -15.0722 
55.5165 6.42254 -46.4506 
4.47842 1.52118 -8.46205 
-51.2912 -163.535 -60.9321 
-133.139 29.0054 -363.581 
53.7256 633.877 -293.64 
-0.300481 0.470872 -11.6851 
-1.2989 -0.301692 -1.31314 
-3.12225 -2.07159 -4.64094 
-0.311505 -1.14143 -9.41596 
2.87416 -1.61621 -12.8659 
-0.975219 -9.33191 -18.1816 
65.1169 -25.8844 -74.2479 
-3.53038 -12.0934 5.53245 
2.02704 5.04631 -4.48132 
-2.21791 2.79359 -3.74259 
141.315 -26.0561 190.993 
91.6555 -51.9947 117.043 
-6.54728 19.7579 -14.1103 
71.9356 201.221 41.672 
-94.5419 -185.01 76.6797 
-9.06284 -15.4901 -67.6592 
13.596 -0.0213689 -13.6884 
-2.98425 -4.07627 -2.26884 
-17.141 57.9311 38.0851 
25.6947 188.929 276.689 
-1.61318 -1.98645 -12.3584 
6.23078 -9.16258 10.4526 
-56.55 32.2245 -384.883 
0.710808 14.9868 6.05878 
4.08369 -2.00827 -43.7376 
8.17329 14.59 6.28534 
124.28 53.4095 -364.492 
29.3792 -191.549 -166.091 
-13.4504 0.982087 -23.2459 
2.2801 -1.50587 -22.2296 
5.95206 -15.0714 27.1412 
-4.92659 6.93719 -28.0018 
-0.751134 -2.37885 -2.22808 
1.40246 -4.26004 4.1746 
10.5011 -34.7331 17.545 
-9.8561 -5.89933 -12.838 
8.9512 3.15106 -9.39837 
-12.8705 2.01677 -4.91729 
0.188936 -0.0681947 -0.0236951 
0.793737 16.3448 -14.6782 
7.33163 37.475 -228.776 
-5.93608 -106.22 -227.022 
-0.119483 0.23094 0.792474 
-0.163113 -1.1422 -4.78099 
39.1866 -11.9352 -57.5999 
-1.23368 -3.19383 -3.83188 
-1.6135 -0.580009 -3.09701 
52.522 -24.1773 -57.4927 
23.4621 -5.08418 -179.449 
-9.96096 -4.8596 -19.3772 
-6.73745 10.7686 -27.7644 
13.7815 -54.4672 -172.107 
12.1683 -12.4058 -46.3839 
-0.817822 33.9721 60.9561 
-0.0292816 0.269058 1.05304 
-3.48336 -0.787929 -22.5866 
3.01665 1.95899 -3.67958 
-3.36166 -2.84626 -27.0452 
-7.31856 7.35255 -24.6669 
10.7638 -13.7171 51.0636 
-2.10322 -0.503948 -5.39261 
-1.22558 3.43904 -11.2255 
3.87849 -8.07376 77.2966 
-12.4344 -21.9289 -59.2575 
6.6788 18.349 -120.853 
1.81087 -9.65331 0.675747 
1.06575 -0.25163 6.16899 
12.5792 0.219681 21.6151 
-4.05791 -0.274262 1.74547 
-17.6083 -1.2762 112.12 
-8.05627 8.0139 27.7413 
-5.79778 -1.09629 5.40602 
-241.797 -13.408 65.8834 
1.56669 -9.46788 0.383251 
-5.9772 34.4432 49.8762 
69.5297 178.455 89.7704 
-7.27294 19.0816 -5.94565 
-2.19734 -32.3616 -3.66362 
57.9866 -88.6958 70.7698 
-1.68502 2.87242 12.1423 
4.21398 2.9468 -0.934093 
-0.190814 1.42166 23.0352 
-55.9181 168.374 -210.646 
6.00132 -15.8295 55.8204 
-3.66492 -4.21582 14.3529 
9.35994 3.29708 61.2191 
4.89472 -3.87596 64.7971 
51.6053 255.468 429.256 
0.000775868 0.000716902 13.6105 
-35.2915 101.302 304.528 
-19.4306 9.30952 56.2038 
-10.3601 3.25571 30.7392 
3.32298 -4.83447 42.5706 
-0.219776 0.00445021 -35.3964 
-6.20845 -3.72198 29.7265 
0.0013733 -0.00175614 13.6174 
0.22496 -1.65282 19.3448 
-2.53299e-12 -9.85568e-14 13.6117 
-1.73747 0.118573 6.71798 
7.51678 -1.24021 15.9994 
2.39164 0.133014 29.2663 
-27.1563 -24.1779 157.755 
66.8519 -11.8833 53.6313 
9.86431e-07 1.86671e-07 13.6117 
-11.4419 43.6523 99.9897 
0.00602139 -0.388815 2.2875 
-35.8209 31.1396 105.069 
10.7138 -10.7249 43.4916 
173.433 -11.3923 403.589 
-8.50481 -3.34086 20.4028 
4.18409 11.784 32.1809 
-3.09609 2.06154 11.6608 
239.465 8.58403 289.024 
13.5054 -12.0689 24.391 
-2.06012 -2.15666 18.4506 
1.94867 -1.01504 10.2188 
-5.41298e-09 2.14882e-09 13.6117 
-0.574771 2.25528 21.7396 
-2.0553 0.309729 9.52825 
VECTORS moment double
0 0 0 
0 0 0 
0 0 0 
0 0 0 
0 0 0 
0 0 0 
0 0 0 
0 0 0 
0 0 0 
0 0 0 
0 0 0 
0 0 0 
0 0 0 
0 0 0 
0 0 0 
0 0 0 
0 0 0 
0 0 0 
0 0 0 
0 0 0 
0 0 0 
0 0 0 
0 0 0 
0 0 0 
0 0 0 
0 0 0 
0 0 0 
0 0 0 
0 0 0 
0 0 0 
0 0 0 
0 0 0 
0 0 0 
0 0 0 
0 0 0 
0 0 0 
0 0 0 
0 0 0 
0 0 0 
0 0 0 
0 0 0 
0 0 0 
0 0 0 
0 0 0 
0 0 0 
0 0 0 
0 0 0 
0 0 0 
0 0 0 
0 0 0 
0 0 0 
0 0 0 
0 0 0 
0 0 0 
0 0 0 
0 0 0 
0 0 0 
0 0 0 
0 0 0 
0 0 0 
0 0 0 
0 0 0 
0 0 0 
0 0 0 
0 0 0 
0 0 0 
0 0 0 
0 0 0 
0 0 0 
0 0 0 
0 0 0 
0 0 0 
0 0 0 
0 0 0 
0 0 0 
0 0 0 
0 0 0 
0 0 0 
0 0 0 
0 0 0 
0 0 0 
0 0 0 
0 0 0 
0 0 0 
0 0 0 
0 0 0 
0 0 0 
0 0 0 
0 0 0 
0 0 0 
0 0 0 
0 0 0 
0 0 0 
0 0 0 
0 0 0 
0 0 0 
0 0 0 
0 0 0 
0 0 0 
0 0 0 
0 0 0 
0 0 0 
0 0 0 
0 0 0 
0 0 0 
0 0 0 
0 0 0 
0 0 0 
0 0 0 
0 0 0 
0 0 0 
0 0 0 
0 0 0 
0 0 0 
0 0 0 
0 0 0 
0 0 0 
0 0 0 
0 0 0 
0 0 0 
0 0 0 
0 0 0 
0 0 0 
0 0 0 
0 0 0 
0 0 0 
0 0 0 
0 0 0 
0 0 0 
0 0 0 
0 0 0 
0 0 0 
0 0 0 
0 0 0 
0 0 0 
0 0 0 
0 0 0 
0 0 0 
0 0 0 
0 0 0 
0 0 0 
0 0 0 
0 0 0 
0 0 0 
0 0 0 
0 0 0 
0 0 0 
0 0 0 
0 0 0 
0 0 0 
0 0 0 
0 0 0 
0 0 0 
0 0 0 
0 0 0 
0 0 0 
0 0 0 
0 0 0 
0 0 0 
0 0 0 
0 0 0 
0 0 0 
0 0 0 
0 0 0 
0 0 0 
0 0 0 
0 0 0 
0 0 0 
0 0 0 
0 0 0 
0 0 0 
0 0 0 
0 0 0 
0 0 0 
0 0 0 
0 0 0 
SCALARS num_collisions int 1
LOOKUP_TABLE default
1 
1 
1 
1 
1 
1 
1 
1 
1 
1 
1 
1 
1 
1 
1 
1 
1 
1 
1 
1 
1 
1 
1 
1 
1 
1 
1 
1 
1 
1 
1 
1 
1 
1 
1 
1 
1 
1 
1 
1 
1 
1 
1 
1 
1 
1 
1 
1 
1 
1 
1 
1 
1 
1 
1 
1 
1 
1 
1 
1 
1 
1 
1 
1 
1 
1 
1 
1 
1 
1 
1 
1 
1 
1 
1 
1 
1 
1 
1 
1 
1 
1 
1 
1 
1 
1 
1 
1 
1 
1 
1 
1 
1 
1 
1 
1 
1 
1 
1 
1 
1 
1 
1 
1 
1 
1 
1 
1 
1 
1 
1 
1 
1 
1 
1 
1 
1 
1 
1 
1 
1 
1 
1 
1 
1 
1 
1 
1 
1 
1 
1 
1 
1 
1 
1 
1 
1 
1 
1 
1 
1 
1 
1 
1 
1 
1 
1 
1 
1 
1 
1 
1 
1 
1 
1 
1 
1 
1 
1 
1 
1 
1 
1 
1 
1 
1 
1 
1 
1 
1 
1 
1 
1 
1 
1 
1 
VECTORS pos double
-0.393732 -0.405768 -0.42334 
-0.375089 -0.00302615 -0.424744 
-0.44937 0.148361 -0.408176 
-0.421622 0.372754 -0.418675 
-0.444627 0.309796 -0.415225 
-0.282186 -0.422726 -0.421267 
-0.111542 0.144851 -0.469244 
-0.254405 0.402814 -0.428132 
-0.301314 0.360125 -0.430508 
-0.0656965 -0.379143 -0.432279 
-0.00646676 0.180021 -0.401075 
-0.020293 0.157481 -0.419005 
-0.0596629 0.327109 -0.406964 
0.218512 -0.41241 -0.423731 
0.176795 -0.217028 -0.427822 
0.195622 0.00910923 -0.424171 
0.140639 0.246048 -0.433337 
0.200894 0.201225 -0.43182 
0.296242 0.392844 -0.362147 
0.332853 0.419222 -0.448976 
0.442378 -0.379916 -0.407787 
0.432032 -0.327455 -0.407787 
0.352934 0.0780591 -0.411235 
-0.40838 -0.43088 -0.355387 
-0.360111 -0.397319 -0.398031 
-0.347928 -0.00639619 -0.353656 
-0.444965 0.224972 -0.373383 
-0.305839 -0.419687 -0.361584 
-0.291482 0.203738 -0.458637 
-0.28799 0.160151 -0.428281 
-0.131736 0.37442 -0.402932 
-0.0863189 -0.363385 -0.36295 
0.246152 -0.200669 0.0907233 
0.0761998 0.285783 -0.432419 
0.109697 0.268127 -0.373741 
0.195245 -0.417257 -0.357023 
0.250822 -0.422665 -0.374116 
0.158523 -0.265622 -0.40705 
0.200956 -0.153925 -0.383829 
0.152967 -0.159007 -0.352171 
0.179716 0.0368855 -0.356624 
0.449994 0.185118 -0.37882 
0.420271 0.348448 -0.40694 
0.431842 0.305347 -0.460613 
-0.408267 -0.438311 -0.276633 
-0.311357 0.0142651 -0.289975 
-0.180341 -0.424139 -0.422694 
-0.406661 0.355654 -0.334062 
-0.351742 0.342285 -0.365765 
0.0397383 -0.399059 -0.367335 
-0.0230563 0.245406 -0.334705 
0.300558 0.32799 -0.446376 
0.151531 -0.419334 -0.334354 
0.153753 0.0479707 -0.287351 
0.320349 -0.432206 -0.326998 
0.414399 -0.204878 -0.415363 
0.443613 0.240446 -0.413236 
-0.394614 -0.445796 -0.192409 
-0.324971 -0.00976725 -0.225806 
-0.254305 0.0550204 -0.2487 
-0.156263 -0.429447 -0.34043 
-0.20882 -0.421093 -0.391862 
-0.324966 0.405133 -0.377046 
0.0684063 -0.446449 -0.299282 
0.112331 0.434875 -0.431486 
0.11267 -0.30246 -0.365956 
0.214954 -0.291396 -0.351742 
0.228032 0.199113 -0.402245 
0.297262 0.18472 -0.425989 
0.181875 0.419543 -0.419814 
0.353759 -0.365911 -0.302119 
0.377836 -0.272324 -0.305744 
0.397805 -0.316619 -0.283398 
0.349092 0.153674 -0.29163 
0.329236 0.259444 -0.403484 
0.406367 0.328451 -0.345983 
0.429466 0.41214 -0.354547 
-0.274193 -0.395607 -0.326527 
0.0602373 0.104416 -0.245413 
0.233567 0.191225 -0.351352 
0.387006 0.432158 -0.277239 
0.374311 0.445822 -0.20055 
0.39174 -0.432155 -0.270688 
0.423842 -0.217645 -0.339189 
0.411608 0.427926 -0.306814 
-0.451839 -0.0238539 -0.128577 
-0.0836678 -0.375512 -0.304079 
0.208211 0.353083 -0.354901 
0.217986 0.318913 -0.285118 
0.35252 -0.127337 -0.337702 
0.442025 0.0177466 -0.304828 
0.445228 0.401102 -0.241602 
-0.429997 -0.00744775 -0.0978035 
-0.107128 -0.372156 -0.196076 
-0.0889416 -0.399564 -0.238191 
0.123954 -0.184354 0.358998 
0.293755 -0.119132 -0.0531908 
0.227461 0.174594 -0.277164 
0.422593 -0.189576 -0.27634 
0.397188 -0.0546184 -0.297355 
0.363339 -0.0771979 -0.264639 
0.447868 0.389839 -0.146459 
-0.425076 0.0227018 -0.0507875 
-0.242316 -0.386772 -0.239596 
0.0131967 -0.419539 -0.232726 
0.225222 0.170686 -0.19922 
0.432133 -0.287133 -0.212466 
0.428002 -0.346531 -0.214904 
0.420011 -0.155542 -0.213355 
-0.0195578 -0.39969 -0.166431 
0.208955 -0.376972 0.115512 
0.190082 0.234445 -0.214673 
0.42003 0.396949 -0.0564509 
-0.177291 -0.407252 -0.129205 
-0.0097635 -0.380269 -0.0861948 
0.438905 -0.213933 0.102965 
0.419029 -0.183897 0.0200983 
0.403474 0.40674 0.0366399 
0.00652422 -0.38327 0.00490992 
0.414901 -0.168427 -0.0349979 
0.206829 0.184884 -0.105805 
0.406417 -0.173752 -0.126154 
0.172165 -0.320551 0.418213 
-0.5 0.175731 -0.366341 
-0.500003 -0.0213421 -0.1904 
-0.5 -0.199601 -0.0460258 
0.5 0.137309 -0.39342 
0.5 0.386017 -0.177416 
0.5 0.0607628 -0.32903 
0.5 -0.208146 -0.380577 
-0.166884 -0.500005 0.127616 
0.0502136 -0.50001 -0.350973 
0.291232 -0.5 -0.363443 
-0.152096 -0.500004 -0.376065 
0.156224 0.5 -0.450022 
0.410217 0.500006 -0.377889 
0.0412799 0.0434223 -0.500003 
0.201445 0.00649416 -0.500003 
-0.44874 0.120991 -0.5 
0.418557 0.354777 -0.500008 
-0.188789 -0.389378 -0.500014 
-0.120291 0.416705 -0.500004 
-0.395176 -0.00852267 -0.500016 
-0.404519 -0.401121 -0.500018 
0.453925 0.253995 -0.50001 
0.338646 -0.0103961 -0.5 
0.274773 0.190492 -0.500018 
-0.0433114 -0.394139 -0.500014 
0.0381275 0.16416 -0.500007 
-0.449323 0.34538 -0.5 
-0.447414 -0.203503 -0.5 
0.362855 0.431584 -0.500004 
-0.194184 -0.010437 -0.5 
0.42832 -0.300936 -0.5 
-0.127556 -0.149995 -0.5 
-0.0945724 0.153521 -0.500002 
-0.179635 0.16894 -0.500004 
-0.280844 -0.425109 -0.500006 
0.22621 -0.398539 -0.500039 
0.0153727 0.257242 -0.500007 
0.271337 -0.192294 -0.5 
0.175139 0.19736 -0.500036 
0.208741 0.144507 -0.500001 
-0.2599 0.356645 -0.500033 
0.158013 -0.199005 -0.500011 
0.378734 -0.201611 -0.5 
0.381535 0.0913448 -0.5 
0.156224 0.450022 -0.5 
0.294716 0.0531029 -0.500003 
-0.316165 0.148462 -0.50002 
0.249465 0.361435 -0.500005 
-0.0310839 0.335872 -0.500005 
-0.438942 0.247358 -0.500003 
0.446495 -0.00355001 -0.5 
0.449013 -0.405858 -0.5 
0.0898361 -0.109201 -0.500002 
VECTORS dir_n double
0.0988255 0.06425 -0.993028 
-0.116767 0.0154223 -0.99304 
0.012605 -0.547431 -0.836756 
-0.554075 -0.547541 -0.627056 
-0.0939422 0.71177 -0.696102 
0.654741 -0.200434 -0.728794 
-0.966251 -0.231759 0.11246 
-0.1146 -0.579996 -0.806518 
0.613659 0.0517082 -0.787876 
0.302351 -0.154163 -0.940647 
0.510775 -0.714792 -0.477684 
0.977121 0.204479 -0.0585031 
0.873004 -0.107044 -0.475821 
0.0644349 0.00162987 -0.997921 
0.0433702 0.167104 -0.984985 
-0.0571686 -0.0578226 -0.996689 
0.363564 -0.830857 -0.421306 
-0.825018 0.299234 -0.479379 
0.175611 0.275414 -0.94515 
-0.55666 -0.252179 0.79154 
0.132704 -0.518849 -0.844503 
-0.0742299 0.53041 -0.844485 
0.572087 0.265748 -0.775948 
0.125055 0.309696 -0.942576 
-0.930999 0.261497 -0.254677 
-0.368425 -0.0763416 -0.926518 
-0.100711 -0.984896 0.140845 
-0.719673 0.34934 -0.600027 
0.255014 0.950353 0.178318 
-0.278473 0.190054 -0.941452 
-0.376625 0.528181 -0.761038 
0.0845582 -0.652086 -0.753415 
0.332409 0.395265 0.856311 
0.831573 0.529878 0.166477 
-0.578755 -0.599662 0.552673 
0.313508 0.151134 -0.937481 
0.80833 -0.548657 0.213489 
-0.0135868 0.886442 -0.46264 
-0.849053 -0.445064 -0.284651 
0.536747 -0.483406 -0.691535 
0.0980045 -0.348929 -0.932011 
0.000137193 -0.9564 -0.292061 
-0.114967 -0.193026 -0.974435 
0.194551 -0.95522 -0.222945 
0.324909 0.287519 -0.900981 
-0.239577 -0.20267 -0.949488 
-0.139388 0.597684 -0.789522 
0.861893 -0.492077 -0.122475 
0.0109994 -0.228959 0.973374 
-0.801 -0.397566 -0.447594 
-0.544265 -0.355168 -0.760021 
-0.595921 0.382887 -0.705886 
0.953585 0.221147 -0.204377 
0.303854 -0.310686 -0.900637 
-0.582801 -0.358049 -0.729482 
-0.714331 0.0654432 -0.696741 
-0.127488 0.150395 -0.980371 
-0.179516 0.269938 -0.945995 
0.372728 -0.0607732 -0.925949 
-0.527152 -0.769289 -0.36098 
-0.145904 -0.460654 -0.875506 
0.924502 0.0696606 -0.374758 
-0.248809 -0.460637 -0.852002 
0.726881 -0.339157 -0.597174 
-0.877932 -0.302956 0.370746 
0.516817 0.85604 -0.00975138 
-0.910126 0.118371 -0.397062 
0.193069 0.505109 0.841183 
0.617204 0.506428 0.602155 
-0.513077 0.609646 -0.604222 
0.0859291 0.969023 -0.231541 
-0.396025 -0.904373 -0.158979 
-0.795314 -0.017714 -0.605939 
0.697882 0.277122 -0.660428 
-0.0222986 -0.988124 0.152033 
0.152906 0.587659 -0.794529 
-0.146104 0.900608 0.40934 
-0.0447744 -0.53282 -0.845044 
0.00682045 -0.574086 0.818767 
0.0672232 0.393547 -0.916844 
-0.692503 0.337848 0.637416 
-0.438503 0.0644176 -0.896418 
0.845501 -0.356753 0.39731 
0.525406 0.190332 -0.82929 
-0.34059 0.5653 -0.751288 
-0.27206 -0.0779331 -0.959119 
0.116924 0.310925 -0.943215 
0.0137156 -0.719676 0.694174 
-0.173544 -0.137317 -0.975206 
-0.156217 -0.867445 -0.472372 
-0.159582 -0.860354 0.48407 
-0.283015 -0.521127 0.805189 
-0.648979 -0.754396 -0.0985576 
0.0118333 0.354677 -0.934914 
-0.953379 0.239742 -0.183285 
-0.263978 -0.896604 -0.355551 
-0.5487 0.57745 -0.604549 
0.36659 0.432408 -0.823793 
-0.499909 -0.752014 -0.429611 
0.737198 0.587004 0.334614 
-0.0601748 -0.135395 -0.988963 
0.146841 0.0446052 -0.988154 
0.4982 -0.844164 -0.19795 
-0.581488 0.183927 -0.792491 
0.223392 -0.434859 -0.87235 
-0.043321 -0.450261 -0.891846 
0.108531 -0.572076 -0.812989 
0.191159 0.616012 -0.764191 
0.551567 0.0707313 -0.831126 
0.344035 -0.332739 -0.878023 
-0.122651 0.464561 0.877006 
0.230838 0.480369 0.846144 
-0.100737 -0.0257252 -0.99458 
0.578175 -0.255214 -0.774971 
-0.758982 0.19302 -0.621844 
0.216083 0.28582 -0.933603 
0.613705 -0.314992 0.723979 
0.0105792 -0.627588 -0.778474 
-0.417193 0.269175 -0.868041 
-0.10963 0.400167 0.909861 
0.0200095 0.195533 -0.980493 
-0.279431 0.293719 -0.914138 
-0.190863 -0.962673 -0.191919 
1 0 0 
1 3.34033e-17 -1.66971e-16 
-1 0 0 
-1 0 0 
-1 -9.18371e-17 1.24123e-16 
-1 0 0 
-1 0 0 
1.99837e-17 -1 -1.20045e-16 
1.07251e-16 1 4.96902e-17 
5.60365e-18 1 0 
-4.51549e-17 1 -1.36328e-16 
3.09008e-17 -1 0 
-6.14224e-17 -1 -6.15243e-17 
1.35665e-16 7.48611e-17 1 
8.35907e-16 -2.55069e-16 -1 
4.34119e-17 0 1 
-1.19561e-16 1.5445e-16 -1 
-1.1909e-17 -8.25452e-19 1 
2.67867e-16 -3.49987e-17 1 
1.1084e-16 -9.99316e-17 1 
-9.14793e-17 2.00989e-17 1 
-1.55847e-16 9.41758e-17 1 
7.34725e-17 0 1 
2.38666e-16 2.63322e-17 1 
-1.01679e-16 1.86996e-16 1 
3.32256e-17 5.33135e-17 1 
2.34904e-17 0 1 
2.82514e-17 0 -1 
1.90837e-16 1.18763e-16 1 
7.34352e-17 0 1 
5.16934e-17 0 1 
7.3466e-17 0 1 
1.13599e-16 3.07259e-18 1 
6.80129e-17 8.60662e-17 1 
3.49523e-17 -1.1136e-16 1 
9.50587e-17 7.0538e-17 1 
4.75904e-17 6.83682e-17 1 
7.3466e-17 0 1 
1.30828e-16 6.32054e-17 1 
4.15079e-16 4.50258e-17 1 
-1.64266e-17 5.53908e-17 1 
5.57013e-17 -9.51696e-17 1 
2.47777e-18 0 1 
4.9013e-17 0 1 
3.10743e-17 0 1 
1.33849e-16 3.29952e-17 1 
-1.10988e-16 -1.28055e-16 1 
8.14754e-17 3.79263e-17 1 
1.48154e-16 -1.38852e-17 1 
1.34939e-16 -1.13371e-17 1 