# vtk DataFile Version 2.0
Generated by NetDEM
ASCII 
DATASET POLYDATA
POINTS 364 double
-0.416889 -0.405385 -0.462868 
-0.403149 -0.399413 -0.388386 
-0.403333 -0.203333 -0.465716 
-0.403333 -0.203333 -0.381263 
-0.409683 -0.00771544 -0.463393 
-0.405937 -0.00995277 -0.389082 
-0.402763 0.397237 -0.465719 
-0.402763 0.397237 -0.381268 
-0.265483 -0.432163 -0.459402 
-0.304902 -0.408062 -0.38751 
-0.203538 -0.203538 -0.46571 
-0.203538 -0.203538 -0.381252 
-0.203218 -0.00321788 -0.465713 
-0.203218 -0.00321788 -0.381258 
-0.175722 0.206683 -0.45781 
-0.186741 0.198811 -0.378462 
-0.24679 0.36909 -0.465046 
-0.156876 0.415447 -0.445327 
-0.0404173 -0.396617 -0.456069 
-0.0554534 -0.390318 -0.380949 
-0.00366947 -0.203669 -0.465715 
-0.00366947 -0.203669 -0.38126 
-0.00360232 -0.00360232 -0.465709 
-0.00360232 -0.00360232 -0.381249 
-0.0404187 0.395928 -0.464438 
-0.087206 0.44193 -0.363929 
0.191183 -0.397242 -0.463716 
0.193644 -0.394534 -0.391393 
0.173288 -0.210397 -0.463912 
0.177382 -0.191697 -0.385883 
0.173762 -0.00944296 -0.461852 
0.187321 -0.0116451 -0.38373 
0.396855 -0.401349 -0.450055 
0.396719 -0.450064 -0.362772 
-0.403149 -0.399413 -0.388386 
-0.402409 -0.40317 -0.316147 
-0.403333 -0.203333 -0.381263 
-0.403333 -0.203333 -0.296876 
-0.405937 -0.00995277 -0.389082 
-0.381353 -0.00245331 -0.311546 
-0.402763 0.397237 -0.381268 
-0.402763 0.397237 -0.296884 
-0.203538 -0.203538 -0.381252 
-0.203538 -0.203538 -0.296859 
-0.203218 -0.00321788 -0.381258 
-0.203218 -0.00321788 -0.296869 
-0.156876 0.415447 -0.445327 
-0.207987 0.450923 -0.384482 
-0.0554534 -0.390318 -0.380949 
0.0264169 -0.428768 -0.341897 
-0.0554534 -0.390318 -0.380949 
-0.148251 -0.411772 -0.37112 
-0.00366947 -0.203669 -0.38126 
-0.00366947 -0.203669 -0.296871 
-0.00360232 -0.00360232 -0.381249 
-0.00360232 -0.00360232 -0.296855 
0.00328016 0.255935 -0.443684 
-0.0357657 0.247179 -0.354888 
0.193644 -0.394534 -0.391393 
0.182938 -0.395864 -0.318209 
0.177382 -0.191697 -0.385883 
0.140509 -0.15461 -0.314993 
0.187321 -0.0116451 -0.38373 
0.18918 0.00526613 -0.309547 
0.306066 0.435001 -0.254271 
0.400695 0.460626 -0.315248 
0.396719 -0.450064 -0.362772 
0.394559 -0.428019 -0.265296 
0.4069 0.357454 -0.451217 
0.413097 0.381983 -0.348933 
-0.402409 -0.40317 -0.316147 
-0.415509 -0.408351 -0.243462 
-0.403333 -0.203333 -0.296876 
-0.403333 -0.203333 -0.212572 
-0.381353 -0.00245331 -0.311546 
-0.375766 0.00476307 -0.235563 
-0.402763 0.397237 -0.296884 
-0.402763 0.397237 -0.212584 
-0.181561 -0.358684 -0.454292 
-0.148251 -0.411772 -0.37112 
-0.203538 -0.203538 -0.296859 
-0.203538 -0.203538 -0.212549 
-0.203218 -0.00321788 -0.296869 
-0.203218 -0.00321788 -0.212564 
-0.186741 0.198811 -0.378462 
-0.1693 0.163237 -0.280067 
-0.207987 0.450923 -0.384482 
-0.251131 0.438642 -0.307401 
0.0264169 -0.428768 -0.341897 
0.0969248 -0.436896 -0.289681 
-0.00366947 -0.203669 -0.296871 
-0.00366947 -0.203669 -0.212566 
-0.00360232 -0.00360232 -0.296855 
-0.00360232 -0.00360232 -0.212543 
0.182938 -0.395864 -0.318209 
0.0969248 -0.436896 -0.289681 
0.182938 -0.395864 -0.318209 
0.20647 -0.396645 -0.229171 
0.18918 0.00526613 -0.309547 
0.19258 0.00553942 -0.236295 
0.394559 -0.428019 -0.265296 
0.394839 -0.3342 -0.230711 
-0.415509 -0.408351 -0.243462 
-0.416378 -0.411429 -0.154847 
-0.403333 -0.203333 -0.212572 
-0.403333 -0.203333 -0.128346 
-0.375766 0.00476307 -0.235563 
-0.387031 -0.00354114 -0.155805 
-0.402763 0.397237 -0.212584 
-0.402763 0.397237 -0.12836 
-0.148251 -0.411772 -0.37112 
-0.241594 -0.39526 -0.324694 
-0.203538 -0.203538 -0.212549 
-0.203538 -0.203538 -0.128316 
-0.203218 -0.00321788 -0.212564 
-0.203218 -0.00321788 -0.128337 
0.0969248 -0.436896 -0.289681 
0.0430767 -0.38658 -0.248376 
-0.00366947 -0.203669 -0.212566 
-0.00366947 -0.203669 -0.128339 
-0.00360232 -0.00360232 -0.212543 
-0.00360232 -0.00360232 -0.128309 
0.20647 -0.396645 -0.229171 
0.201923 -0.401178 -0.157741 
0.19258 0.00553942 -0.236295 
0.186237 0.00233183 -0.163594 
0.413097 0.381983 -0.348933 
0.400695 0.460626 -0.315248 
-0.416378 -0.411429 -0.154847 
-0.414301 -0.405379 -0.0788432 
-0.403333 -0.203333 -0.128346 
-0.403333 -0.203333 -0.0441619 
-0.387031 -0.00354114 -0.155805 
-0.432139 -0.0069033 -0.0944809 
-0.402763 0.397237 -0.12836 
-0.402763 0.397237 -0.044178 
-0.203538 -0.203538 -0.128316 
-0.203538 -0.203538 -0.0441278 
-0.203218 -0.00321788 -0.128337 
-0.203218 -0.00321788 -0.0441518 
0.0430767 -0.38658 -0.248376 
-0.0346861 -0.378185 -0.209163 
-0.00366947 -0.203669 -0.128339 
-0.00366947 -0.203669 -0.0441537 
-0.00360232 -0.00360232 -0.128309 
-0.00360232 -0.00360232 -0.04412 
0.201923 -0.401178 -0.157741 
0.209494 -0.399259 -0.0784202 
0.186237 0.00233183 -0.163594 
0.182803 -0.00121686 -0.0865925 
0.393112 -0.400465 -0.15583 
0.397645 -0.449816 -0.0690075 
0.400695 0.460626 -0.315248 
0.429547 0.416607 -0.238798 
-0.414301 -0.405379 -0.0788432 
-0.410453 -0.400576 -0.000848318 
-0.403333 -0.203333 -0.0441619 
-0.403333 -0.203333 0.0400496 
-0.432139 -0.0069033 -0.0944809 
-0.428357 -0.00481087 0.00591314 
-0.402763 0.397237 -0.044178 
-0.402763 0.397237 0.0400321 
-0.203538 -0.203538 -0.0441278 
-0.203538 -0.203538 0.0400838 
-0.203218 -0.00321788 -0.0441518 
-0.203218 -0.00321788 0.0400599 
-0.00366947 -0.203669 -0.0441537 
-0.00366947 -0.203669 0.0400586 
-0.00360232 -0.00360232 -0.04412 
-0.00360232 -0.00360232 0.0400919 
0.209494 -0.399259 -0.0784202 
0.186389 -0.410845 -0.00983353 
0.182803 -0.00121686 -0.0865925 
0.186855 -0.00305636 -0.00756606 
0.395661 -0.227026 -0.154431 
0.396829 -0.314018 -0.105496 
0.383433 -0.0740158 -0.188585 
0.395058 -0.124879 -0.103283 
-0.410453 -0.400576 -0.000848318 
-0.409871 -0.400967 0.0771553 
-0.403333 -0.203333 0.0400496 
-0.403333 -0.203333 0.124393 
-0.402763 0.397237 0.0400321 
-0.402763 0.397237 0.124376 
-0.203538 -0.203538 0.0400838 
-0.203538 -0.203538 0.124421 
-0.203218 -0.00321788 0.0400599 
-0.203218 -0.00321788 0.124403 
-0.00366947 -0.203669 0.0400586 
-0.00366947 -0.203669 0.124402 
-0.00360232 -0.00360232 0.0400919 
-0.00360232 -0.00360232 0.124429 
0.186389 -0.410845 -0.00983353 
0.197566 -0.406276 0.084867 
0.186855 -0.00305636 -0.00756606 
0.193335 -0.00722714 0.0693327 
0.396829 -0.314018 -0.105496 
0.396346 -0.322947 -0.00616495 
0.395058 -0.124879 -0.103283 
0.39858 -0.205436 -0.0441276 
-0.409871 -0.400967 0.0771553 
-0.411436 -0.404429 0.155666 
-0.403333 -0.203333 0.124393 
-0.403333 -0.203333 0.208973 
-0.402763 0.397237 0.124376 
-0.402763 0.397237 0.208957 
-0.203538 -0.203538 0.124421 
-0.203538 -0.203538 0.208991 
-0.203218 -0.00321788 0.124403 
-0.203218 -0.00321788 0.208982 
-0.00366947 -0.203669 0.124402 
-0.00366947 -0.203669 0.208982 
-0.00360232 -0.00360232 0.124429 
-0.00360232 -0.00360232 0.208999 
0.197566 -0.406276 0.084867 
0.195329 -0.405259 0.155869 
0.193335 -0.00722714 0.0693327 
0.194127 -0.00920511 0.142835 
0.396346 -0.322947 -0.00616495 
0.396733 -0.240369 0.0497092 
-0.411436 -0.404429 0.155666 
-0.407996 -0.409494 0.234886 
-0.403333 -0.203333 0.208973 
-0.403333 -0.203333 0.293838 
-0.402763 0.397237 0.208957 
-0.402763 0.397237 0.293825 
-0.203538 -0.203538 0.208991 
-0.203538 -0.203538 0.293847 
-0.203218 -0.00321788 0.208982 
-0.203218 -0.00321788 0.293845 
-0.18365 0.181192 0.0865827 
-0.203258 0.195298 0.178875 
-0.00366947 -0.203669 0.208982 
-0.00366947 -0.203669 0.293845 
-0.00360232 -0.00360232 0.208999 
-0.00360232 -0.00360232 0.293853 
-0.0125785 0.402939 -0.0701232 
-0.0167786 0.389555 0.0424026 
0.195329 -0.405259 0.155869 
0.201541 -0.398945 0.231573 
0.194127 -0.00920511 0.142835 
0.192365 -0.00539872 0.22426 
-0.407996 -0.409494 0.234886 
-0.406483 -0.40224 0.31508 
-0.403333 -0.203333 0.464348 
-0.403333 -0.203333 0.378982 
-0.402547 -0.00368985 0.227783 
-0.406378 -0.00584784 0.309262 
-0.402763 0.397237 0.464343 
-0.402763 0.397237 0.378972 
-0.203538 -0.203538 0.464348 
-0.203538 -0.203538 0.378985 
-0.203218 -0.00321788 0.46435 
-0.203218 -0.00321788 0.378987 
-0.203258 0.195298 0.178875 
-0.203706 0.196103 0.270088 
-0.00366947 -0.203669 0.464351 
-0.00366947 -0.203669 0.378987 
-0.00360232 -0.00360232 0.46435 
-0.00360232 -0.00360232 0.378989 
-0.0167786 0.389555 0.0424026 
-0.00271097 0.397291 0.132704 
0.201541 -0.398945 0.231573 
0.191231 -0.400666 0.307361 
0.192365 -0.00539872 0.22426 
0.1911 -0.00285349 0.297694 
-0.406483 -0.40224 0.31508 
-0.402171 -0.403551 0.399227 
-0.403333 -0.203333 0.293838 
-0.403333 -0.203333 0.378982 
-0.402763 0.397237 0.293825 
-0.402763 0.397237 0.378972 
-0.203538 -0.203538 0.293847 
-0.203538 -0.203538 0.378985 
-0.203218 -0.00321788 0.293845 
-0.203218 -0.00321788 0.378987 
-0.00366947 -0.203669 0.293845 
-0.00366947 -0.203669 0.378987 
-0.00360232 -0.00360232 0.293853 
-0.00360232 -0.00360232 0.378989 
0.191231 -0.400666 0.307361 
0.199112 -0.402445 0.395112 
-0.450035 0.147527 0.38277 
-0.5 0.147631 0.382739 
-0.428357 -0.00481087 0.00591314 
-0.5 0.0153462 0.0214654 
0.0264169 -0.428768 -0.341897 
0.0338424 -0.500002 -0.316377 
0.396719 -0.450064 -0.362772 
0.396719 -0.5 -0.362777 
0.396864 -0.450032 0.0623463 
0.396863 -0.5 0.0627469 
0.400695 0.460626 -0.315248 
0.419627 0.500004 -0.340775 
0.173762 -0.00944296 -0.461852 
0.205671 -0.00249061 -0.50004 
-0.409683 -0.00771544 -0.463393 
-0.395044 -0.00932534 -0.500023 
-0.181561 -0.358684 -0.454292 
-0.184836 -0.327803 -0.500005 
0.396855 -0.401349 -0.450055 
0.396854 -0.401351 -0.5 
-0.0404187 0.395928 -0.464438 
-0.0548789 0.380372 -0.500004 
-0.416889 -0.405385 -0.462868 
-0.395835 -0.395945 -0.500045 
0.00328016 0.255935 -0.443684 
-0.0291909 0.214806 -0.500004 
0.191183 -0.397242 -0.463716 
0.206063 -0.401169 -0.500048 
0.173288 -0.210397 -0.463912 
0.171907 -0.194431 -0.500008 
-0.24679 0.36909 -0.465046 
-0.237007 0.368459 -0.500002 
-0.265483 -0.432163 -0.459402 
-0.260743 -0.419199 -0.500008 
0.28278 0.0625849 -0.440533 
0.29498 0.0527981 -0.500003 
-0.0404173 -0.396617 -0.456069 
-0.0191337 -0.387074 -0.500008 
-0.301666 0.160801 -0.465044 
-0.295351 0.139485 -0.500001 
-0.402763 0.397237 -0.465719 
-0.402763 0.397237 -0.5 
0.0512507 0.344974 -0.441206 
0.0554661 0.347518 -0.500003 
-0.203538 -0.203538 -0.46571 
-0.203538 -0.203538 -0.5 
-0.00360232 -0.00360232 -0.465709 
-0.00360232 -0.00360232 -0.5 
-0.175722 0.206683 -0.45781 
-0.195435 0.214342 -0.500006 
-0.203218 -0.00321788 -0.465713 
-0.203218 -0.00321788 -0.5 
0.370219 0.439688 -0.464772 
0.375506 0.445491 -0.500003 
-0.156876 0.415447 -0.445327 
-0.136661 0.406358 -0.500006 
0.0302075 0.186064 -0.452864 
0.0292394 0.172448 -0.500003 
0.159524 0.210495 -0.464971 
0.163244 0.218352 -0.500003 
0.198064 0.1122 -0.455683 
0.208859 0.144574 -0.500005 
-0.403333 -0.203333 -0.465716 
-0.403333 -0.203333 -0.5 
-0.00366947 -0.203669 -0.465715 
-0.00366947 -0.203669 -0.5 
0.4069 0.357454 -0.451217 
0.392039 0.351507 -0.50002 
0.385207 0.0692859 -0.450007 
0.385195 0.0692567 -0.5 
-0.203538 -0.203538 0.464348 
-0.203538 -0.203538 0.5 
-0.00360232 -0.00360232 0.46435 
-0.00360232 -0.00360232 0.5 
-0.403333 -0.203333 0.464348 
-0.403333 -0.203333 0.5 
-0.203218 -0.00321788 0.46435 
-0.203218 -0.00321788 0.5 
-0.00366947 -0.203669 0.464351 
-0.00366947 -0.203669 0.5 
-0.402763 0.397237 0.464343 
-0.402763 0.397237 0.5 
LINES 182 546
2 0 1
2 2 3
2 4 5
2 6 7
2 8 9
2 10 11
2 12 13
2 14 15
2 16 17
2 18 19
2 20 21
2 22 23
2 24 25
2 26 27
2 28 29
2 30 31
2 32 33
2 34 35
2 36 37
2 38 39
2 40 41
2 42 43
2 44 45
2 46 47
2 48 49
2 50 51
2 52 53
2 54 55
2 56 57
2 58 59
2 60 61
2 62 63
2 64 65
2 66 67
2 68 69
2 70 71
2 72 73
2 74 75
2 76 77
2 78 79
2 80 81
2 82 83
2 84 85
2 86 87
2 88 89
2 90 91
2 92 93
2 94 95
2 96 97
2 98 99
2 100 101
2 102 103
2 104 105
2 106 107
2 108 109
2 110 111
2 112 113
2 114 115
2 116 117
2 118 119
2 120 121
2 122 123
2 124 125
2 126 127
2 128 129
2 130 131
2 132 133
2 134 135
2 136 137
2 138 139
2 140 141
2 142 143
2 144 145
2 146 147
2 148 149
2 150 151
2 152 153
2 154 155
2 156 157
2 158 159
2 160 161
2 162 163
2 164 165
2 166 167
2 168 169
2 170 171
2 172 173
2 174 175
2 176 177
2 178 179
2 180 181
2 182 183
2 184 185
2 186 187
2 188 189
2 190 191
2 192 193
2 194 195
2 196 197
2 198 199
2 200 201
2 202 203
2 204 205
2 206 207
2 208 209
2 210 211
2 212 213
2 214 215
2 216 217
2 218 219
2 220 221
2 222 223
2 224 225
2 226 227
2 228 229
2 230 231
2 232 233
2 234 235
2 236 237
2 238 239
2 240 241
2 242 243
2 244 245
2 246 247
2 248 249
2 250 251
2 252 253
2 254 255
2 256 257
2 258 259
2 260 261
2 262 263
2 264 265
2 266 267
2 268 269
2 270 271
2 272 273
2 274 275
2 276 277
2 278 279
2 280 281
2 282 283
2 284 285
2 286 287
2 288 289
2 290 291
2 292 293
2 294 295
2 296 297
2 298 299
2 300 301
2 302 303
2 304 305
2 306 307
2 308 309
2 310 311
2 312 313
2 314 315
2 316 317
2 318 319
2 320 321
2 322 323
2 324 325
2 326 327
2 328 329
2 330 331
2 332 333
2 334 335
2 336 337
2 338 339
2 340 341
2 342 343
2 344 345
2 346 347
2 348 349
2 350 351
2 352 353
2 354 355
2 356 357
2 358 359
2 360 361
2 362 363
POINT_DATA 364
SCALARS id int 1
LOOKUP_TABLE default
0
25
1
26
2
27
4
29
5
30
6
31
7
32
8
58
9
34
10
35
11
36
12
37
14
114
15
40
16
41
17
42
20
45
25
50
26
51
27
52
29
54
31
56
32
57
34
59
35
60
35
80
36
61
37
62
38
63
40
65
41
66
42
67
44
124
45
70
49
99
50
75
51
76
52
77
54
79
55
80
56
81
57
82
58
108
59
84
60
85
61
86
62
87
65
85
65
90
67
92
70
95
75
100
76
101
77
102
79
104
80
105
81
106
82
107
85
110
86
111
87
112
90
115
92
117
99
124
100
125
101
126
102
127
104
129
106
131
107
132
110
135
111
136
112
137
115
140
117
142
120
145
124
149
125
150
126
151
127
152
129
154
131
156
132
157
136
161
137
162
140
165
142
167
146
170
147
171
150
175
151
176
154
179
156
181
157
182
161
186
162
187
165
190
167
192
170
195
171
196
175
200
176
201
179
204
181
206
182
207
186
211
187
212
190
215
192
217
195
221
200
225
201
251
204
254
206
256
207
257
208
233
211
261
212
262
214
239
215
240
217
242
225
250
226
276
227
252
229
279
231
281
232
282
233
258
236
286
237
287
239
264
240
265
242
267
250
275
251
276
254
279
256
281
257
282
261
286
262
287
265
290
278
0
152
0
60
2
45
2
220
2
124
3
17
4
2
4
55
4
20
4
14
4
0
4
38
4
15
4
16
4
9
4
5
4
68
4
10
4
33
4
4
4
39
4
6
4
12
4
8
4
7
4
24
4
34
4
13
4
18
4
43
4
1
4
11
4
49
4
23
4
231
5
237
5
226
5
232
5
236
5
229
5
CELL_DATA 182
VECTORS force double
-4.22587 11.9077 -195.108 
0 0 -30396.6 
0.223221 -5.5665 -77.384 
0 0 -30404.1 
5.78702 1.48884 -10.2809 
0 0 -30389.5 
0 0 -30393.6 
-1.95659 1.59844 -9.82894 
-2.8749 -0.654613 -7.04726 
3.81807 2.25438 -19.5151 
0 0 -30392.6 
0 0 -30386.6 
-0.0542975 -5.03698 -3.23546 
13.6538 0.295912 -162.291 
0.37606 -0.18063 -21.7361 
1.66978 -4.07773 -143.546 
0.11117 25.5578 -58.0299 
5.01105 5.77498 -175.734 
0 0 -30571 
-1.07085 -7.84231 -64.6411 
0 0 -30577.8 
0 0 -30561.3 
0 0 -30567.9 
-51.9643 -63.508 -28.4648 
-4.14861 -0.605114 -9.93198 
6.25474 -0.524921 -0.876686 
0 0 -30567.3 
0 0 -30558.5 
-0.762289 -2.34021 -5.8674 
17.086 -28.9672 -144.193 
0.765731 -0.493948 -8.89144 
4.22266 -4.76469 -124.316 
-2.19612 3.17761 5.17463 
0.0412262 18.7286 -0.810293 
-8.42732 -21.7486 -57.9844 
10.1157 5.8402 -149.766 
0 0 -30810.5 
-1.43498 -2.65952 -48.1284 
0 0 -30816.4 
-4.23744 6.73084 -7.64525 
0 0 -30798.4 
0 0 -30807.4 
0.384909 0.8722 -2.22883 
2.78373 -1.9229 -9.59176 
-15.9371 -9.43054 -5.59411 
0 0 -30807.3 
0 0 -30795.9 
17.3955 5.62231 -11.186 
8.68581 -5.74538 -118.575 
4.59986 -2.05011 -116.097 
-0.230511 19.9557 15.6598 
1.46859 4.78975 -118.308 
0 0 -31079 
1.78689 5.45018 -29.5804 
0 0 -31083.9 
-0.103456 0.880944 0.196059 
0 0 -31065.6 
0 0 -31076.2 
1.87679 -2.94987 -6.36399 
0 0 -31076.4 
0 0 -31063.5 
5.7201 0.16591 -101.532 
2.6315 2.02428 -101.14 
2.94448 -29.2932 -22.7683 
4.21691 2.84294 -91.9458 
0 0 -31330.3 
1.23328 4.19535 -14.3029 
0 0 -31334.3 
0 0 -31317.3 
0 0 -31328 
-1.35687 0.364092 0.432306 
0 0 -31328.3 
0 0 -31315.6 
2.00112 5.10202 -86.8266 
2.12216 1.52172 -88.4443 
-0.873673 11.7943 -17.336 
2.18072 -1.77765 -9.20657 
3.6209 -4.5522 -70.0529 
0 0 -31503.2 
3.5209 1.06912 -6.8574 
0 0 -31506.1 
0 0 -31495.2 
0 0 -31501.5 
0 0 -31501.6 
0 0 -31494.2 
-2.41963 0.949923 -75.6003 
1.20907 2.65332 -75.0435 
1.9234 -164.372 262.475 
15.5145 -92.2708 126.401 
3.10362 -2.12484 -55.288 
0 0 -31541.7 
0 0 -31541.6 
0 0 -31544 
0 0 -31542.2 
0 0 -31541.8 
0 0 -31543.9 
-0.121711 -3.66936 -72.702 
3.33073 4.0318 -59.2926 
-1.18775 -338.263 368.898 
10.2049 -127.847 127.044 
-2.08864 2.20281 -51.0876 
0 0 -31281.9 
0 0 -31278.9 
0 0 -31298.1 
0 0 -31283.8 
0 0 -31283.5 
0 0 -31299.5 
-0.935794 -6.88757 -65.4335 
4.37126 2.4193 -44.8025 
-1.96923 -533.194 -521.623 
-5.28231 -0.668305 -68.5956 
0 0 -30872.3 
0 0 -30866.4 
0 0 -30892.1 
0 0 -30875.4 
-3.15402 1.36474 9.83936 
0 0 -30875.4 
0 0 -30894.6 
-72.8396 -2.7587 -199.864 
-4.96163 4.49703 -49.6419 
5.2798 1.80475 -21.6702 
0.20545 6.37363 -59.577 
0 0 30051 
0.273836 -0.368019 -3.14303 
0 0 30040.3 
0 0 30061.7 
0 0 30055.8 
319.549 -409.746 -500.131 
0 0 30056.5 
0 0 30066.1 
95.9685 2.94381 -332.22 
1.67258 2.61515 -34.3586 
3.29982 0.317943 -8.30116 
11.8418 0.23605 -9.49545 
0 0 -30427.2 
0 0 -30418.6 
0 0 -30443.8 
0 0 -30431.3 
0 0 -30431.7 
0 0 -30447.3 
4.65324 -0.495819 -15.9663 
-87.4092 -5.7403 5.52801 
-3.55625 1.0141 1.44031 
9.50165 6.86274 7.09407 
0.096858 21.6582 -14.0989 
-0.0358202 -165.802 -30.2864 
-1.44147 -20.1807 6.04646 
-0.739671 3.11321 155.61 
3.9027 4.66596 91.5984 
-0.0117232 -14.1185 21.7714 
-0.0126996 -13.7006 81.3085 
5.65464 7.79817 17.3042 
-4.01698 -13.6843 216.894 
5.24622 5.99061 15.6545 
-22.4514 -6.63087 176.14 
-0.317444 1.24087 35.9278 
3.14733 1.31402 21.4881 
-2.25827 -1.19077 28.9001 
-1.97466 1.53669 12.7694 
-4.35469 -4.48469 30.2598 
-0.485863 -1.27766 14.1427 
0 0 30321.1 
-0.727364 -0.446453 13.5531 
0 0 30307.9 
0 0 30304.9 
3.51295 -2.43853 19.27 
0 0 30310.2 
-0.985301 -1.17638 13.0643 
-15.4217 10.7828 24.5817 
-1.51099 -2.08789 18.3067 
-0.478477 -1.74114 13.21 
-0.19579 -3.90074 0.34521 
0 0 30313.2 
0 0 30309 
10.5373 3.66003 81.0646 
-0.00458792 0.0458801 13.7571 
0 0 -29833.4 
0 0 -29838.2 
0 0 -29826.7 
0 0 -29831.8 
0 0 -29832.8 
0 0 -29815 
VECTORS moment double
0 0 0 
0 0 0 
0 0 0 
0 0 0 
0 0 0 
0 0 0 
0 0 0 
0 0 0 
0 0 0 
0 0 0 
0 0 0 
0 0 0 
0 0 0 
0 0 0 
0 0 0 
0 0 0 
0 0 0 
0 0 0 
0 0 0 
0 0 0 
0 0 0 
0 0 0 
0 0 0 
0 0 0 
0 0 0 
0 0 0 
0 0 0 
0 0 0 
0 0 0 
0 0 0 
0 0 0 
0 0 0 
0 0 0 
0 0 0 
0 0 0 
0 0 0 
0 0 0 
0 0 0 
0 0 0 
0 0 0 
0 0 0 
0 0 0 
0 0 0 
0 0 0 
0 0 0 
0 0 0 
0 0 0 
0 0 0 
0 0 0 
0 0 0 
0 0 0 
0 0 0 
0 0 0 
0 0 0 
0 0 0 
0 0 0 
0 0 0 
0 0 0 
0 0 0 
0 0 0 
0 0 0 
0 0 0 
0 0 0 
0 0 0 
0 0 0 
0 0 0 
0 0 0 
0 0 0 
0 0 0 
0 0 0 
0 0 0 
0 0 0 
0 0 0 
0 0 0 
0 0 0 
0 0 0 
0 0 0 
0 0 0 
0 0 0 
0 0 0 
0 0 0 
0 0 0 
0 0 0 
0 0 0 
0 0 0 
0 0 0 
0 0 0 
0 0 0 
0 0 0 
0 0 0 
0 0 0 
0 0 0 
0 0 0 
0 0 0 
0 0 0 
0 0 0 
0 0 0 
0 0 0 
0 0 0 
0 0 0 
0 0 0 
0 0 0 
0 0 0 
0 0 0 
0 0 0 
0 0 0 
0 0 0 
0 0 0 
0 0 0 
0 0 0 
0 0 0 
0 0 0 
0 0 0 
0 0 0 
0 0 0 
0 0 0 
0 0 0 
0 0 0 
0 0 0 
0 0 0 
0 0 0 
0 0 0 
0 0 0 
0 0 0 
0 0 0 
0 0 0 
0 0 0 
0 0 0 
0 0 0 
0 0 0 
0 0 0 
0 0 0 
0 0 0 
0 0 0 
0 0 0 
0 0 0 
0 0 0 
0 0 0 
0 0 0 
0 0 0 
0 0 0 
0 0 0 
0 0 0 
0 0 0 
0 0 0 
0 0 0 
0 0 0 
0 0 0 
0 0 0 
0 0 0 
0 0 0 
0 0 0 
0 0 0 
0 0 0 
0 0 0 
0 0 0 
0 0 0 
0 0 0 
0 0 0 
0 0 0 
0 0 0 
0 0 0 
0 0 0 
0 0 0 
0 0 0 
0 0 0 
0 0 0 
0 0 0 
0 0 0 
0 0 0 
0 0 0 
0 0 0 
0 0 0 
0 0 0 
0 0 0 
0 0 0 
0 0 0 
0 0 0 
0 0 0 
0 0 0 
0 0 0 
0 0 0 
SCALARS num_collisions int 1
LOOKUP_TABLE default
1 
1 
1 
1 
1 
1 
1 
1 
1 
1 
1 
1 
1 
1 
1 
1 
1 
1 
1 
1 
1 
1 
1 
1 
1 
1 
1 
1 
1 
1 
1 
1 
1 
1 
1 
1 
1 
1 
1 
1 
1 
1 
1 
1 
1 
1 
1 
1 
1 
1 
1 
1 
1 
1 
1 
1 
1 
1 
1 
1 
1 
1 
1 
1 
1 
1 
1 
1 
1 
1 
1 
1 
1 
1 
1 
1 
1 
1 
1 
1 
1 
1 
1 
1 
1 
1 
1 
1 
1 
1 
1 
1 
1 
1 
1 
1 
1 
1 
1 
1 
1 
1 
1 
1 
1 
1 
1 
1 
1 
1 
1 
1 
1 
1 
1 
1 
1 
1 
1 
1 
1 
1 
1 
1 
1 
1 
1 
1 
1 
1 
1 
1 
1 
1 
1 
1 
1 
1 
1 
1 
1 
1 
1 
1 
1 
1 
1 
1 
1 
1 
1 
1 
1 
1 
1 
1 
1 
1 
1 
1 
1 
1 
1 
1 
1 
1 
1 
1 
1 
1 
1 
1 
1 
1 
1 
1 
1 
1 
1 
1 
1 
1 
VECTORS pos double
-0.392038 -0.401262 -0.424057 
-0.403333 -0.203333 -0.423565 
-0.389681 -0.00323854 -0.424119 
-0.402763 0.397237 -0.423569 
-0.269671 -0.406735 -0.421859 
-0.203538 -0.203538 -0.423556 
-0.203218 -0.00321788 -0.423561 
-0.187399 0.202799 -0.424003 
-0.20097 0.394836 -0.455951 
-0.0266571 -0.400286 -0.417134 
-0.00366947 -0.203669 -0.423563 
-0.00360232 -0.00360232 -0.423554 
-0.0727195 0.416421 -0.430922 
0.196593 -0.404107 -0.425965 
0.16996 -0.180201 -0.42356 
0.208652 -0.000368063 -0.42537 
0.396786 -0.42571 -0.406417 
-0.401053 -0.398145 -0.351034 
-0.403333 -0.203333 -0.339191 
-0.386011 0.00120406 -0.34758 
-0.402763 0.397237 -0.339198 
-0.203538 -0.203538 -0.339177 
-0.203218 -0.00321788 -0.339185 
-0.187571 0.421387 -0.404789 
-0.00977575 -0.413744 -0.373158 
-0.0970491 -0.419773 -0.375714 
-0.00366947 -0.203669 -0.339188 
-0.00360232 -0.00360232 -0.339173 
-0.0073431 0.232787 -0.396663 
0.195998 -0.401935 -0.352021 
0.154323 -0.171459 -0.352089 
0.21162 0.00497888 -0.349361 
0.334501 0.454716 -0.290361 
0.395643 -0.439059 -0.314039 
0.401218 0.363265 -0.402158 
-0.401349 -0.401978 -0.274762 
-0.403333 -0.203333 -0.254888 
-0.382396 0.0118446 -0.274525 
-0.402763 0.397237 -0.254898 
-0.169045 -0.401388 -0.412625 
-0.203538 -0.203538 -0.254868 
-0.203218 -0.00321788 -0.254881 
-0.170457 0.180308 -0.329457 
-0.235462 0.429245 -0.365417 
0.051409 -0.45347 -0.305364 
-0.00366947 -0.203669 -0.254883 
-0.00360232 -0.00360232 -0.254862 
0.141214 -0.418853 -0.327713 
0.210802 -0.397149 -0.266251 
0.206928 0.00749479 -0.27347 
0.394707 -0.381144 -0.247999 
-0.39892 -0.406569 -0.189914 
-0.403333 -0.203333 -0.17066 
-0.389299 0.0149647 -0.200839 
-0.402763 0.397237 -0.170672 
-0.191654 -0.388313 -0.362628 
-0.203538 -0.203538 -0.170632 
-0.203218 -0.00321788 -0.170651 
0.0633213 -0.409928 -0.265706 
-0.00366947 -0.203669 -0.170653 
-0.00360232 -0.00360232 -0.170626 
0.202923 -0.392798 -0.191687 
0.206977 0.00659337 -0.198656 
0.404546 0.425485 -0.332616 
-0.396597 -0.40783 -0.112861 
-0.403333 -0.203333 -0.0864812 
-0.397863 -0.00150998 -0.108115 
-0.402763 0.397237 -0.086496 
-0.203538 -0.203538 -0.0864487 
-0.203218 -0.00321788 -0.0864713 
0.0172052 -0.395041 -0.220029 
-0.00366947 -0.203669 -0.0864738 
-0.00360232 -0.00360232 -0.0864414 
0.202262 -0.40027 -0.117961 
0.207261 0.00573709 -0.122119 
0.395384 -0.42515 -0.112381 
0.413443 0.428232 -0.271872 
-0.394919 -0.409884 -0.0358541 
-0.403333 -0.203333 -0.00229689 
-0.402884 -0.00999089 -0.0407782 
-0.402763 0.397237 -0.00231341 
-0.203538 -0.203538 -0.00226256 
-0.203218 -0.00321788 -0.00228653 
-0.00366947 -0.203669 -0.00228848 
-0.00360232 -0.00360232 -0.00225464 
0.201311 -0.407902 -0.0422195 
0.210161 0.000325224 -0.0465299 
0.396247 -0.270744 -0.129688 
0.389262 -0.0994918 -0.145887 
-0.390987 -0.402811 0.0428419 
-0.403333 -0.203333 0.0819852 
-0.402763 0.397237 0.081968 
-0.203538 -0.203538 0.0820158 
-0.203218 -0.00321788 0.0819953 
-0.00366947 -0.203669 0.0819941 
-0.00360232 -0.00360232 0.0820238 
0.199382 -0.404431 0.0481627 
0.214332 0.00142728 0.0294744 
0.396588 -0.318612 -0.0555354 
0.396815 -0.165163 -0.0736154 
-0.389097 -0.399549 0.122126 
-0.403333 -0.203333 0.166469 
-0.402763 0.397237 0.166453 
-0.203538 -0.203538 0.166492 
-0.203218 -0.00321788 0.166479 
-0.00366947 -0.203669 0.166478 
-0.00360232 -0.00360232 0.166499 
0.196354 -0.397917 0.120867 
0.212393 -0.001813 0.105563 
0.39654 -0.281684 0.0219533 
-0.388893 -0.400004 0.201652 
-0.403333 -0.203333 0.251228 
-0.402763 0.397237 0.251213 
-0.203538 -0.203538 0.25124 
-0.203218 -0.00321788 0.251235 
-0.198243 0.195343 0.130597 
-0.00366947 -0.203669 0.251235 
-0.00360232 -0.00360232 0.251247 
-4.18351e-05 0.390553 -0.0132125 
0.206975 -0.391971 0.196852 
0.217909 -0.000161628 0.181648 
-0.389414 -0.395771 0.280604 
-0.403333 -0.203333 0.421584 
-0.391734 0.00373425 0.276666 
-0.402763 0.397237 0.421577 
-0.203538 -0.203538 0.421585 
-0.203218 -0.00321788 0.421588 
-0.213016 0.20614 0.221491 
-0.00366947 -0.203669 0.421588 
-0.00360232 -0.00360232 0.421589 
0.0139675 0.402806 0.0773625 
0.212707 -0.406835 0.276602 
0.205536 -0.0051389 0.260281 
-0.388064 -0.421275 0.35507 
-0.403333 -0.203333 0.336278 
-0.402763 0.397237 0.336266 
-0.203538 -0.203538 0.336283 
-0.203218 -0.00321788 0.336283 
-0.00366947 -0.203669 0.336284 
-0.00360232 -0.00360232 0.336288 
0.215028 -0.400248 0.359462 
-0.5 0.147631 0.382739 
-0.5 0.0153462 0.0214654 
0.0338424 -0.500002 -0.316377 
0.396719 -0.5 -0.362777 
0.396863 -0.5 0.0627469 
0.419627 0.500004 -0.340775 
0.205671 -0.00249061 -0.50004 
-0.395044 -0.00932534 -0.500023 
-0.184836 -0.327803 -0.500005 
0.396854 -0.401351 -0.5 
-0.0548789 0.380372 -0.500004 
-0.395835 -0.395945 -0.500045 
-0.0291909 0.214806 -0.500004 
0.206063 -0.401169 -0.500048 
0.171907 -0.194431 -0.500008 
-0.237007 0.368459 -0.500002 
-0.260743 -0.419199 -0.500008 
0.29498 0.0527981 -0.500003 
-0.0191337 -0.387074 -0.500008 
-0.295351 0.139485 -0.500001 
-0.402763 0.397237 -0.5 
0.0554661 0.347518 -0.500003 
-0.203538 -0.203538 -0.5 
-0.00360232 -0.00360232 -0.5 
-0.195435 0.214342 -0.500006 
-0.203218 -0.00321788 -0.5 
0.375506 0.445491 -0.500003 
-0.136661 0.406358 -0.500006 
0.0292394 0.172448 -0.500003 
0.163244 0.218352 -0.500003 
0.208859 0.144574 -0.500005 
-0.403333 -0.203333 -0.5 
-0.00366947 -0.203669 -0.5 
0.392039 0.351507 -0.50002 
0.385195 0.0692567 -0.5 
-0.203538 -0.203538 0.5 
-0.00360232 -0.00360232 0.5 
-0.403333 -0.203333 0.5 
-0.203218 -0.00321788 0.5 
-0.00366947 -0.203669 0.5 
-0.402763 0.397237 0.5 
VECTORS dir_n double
-0.0565536 -0.00634987 -0.998379 
3.28984e-20 0 -1 
0.116596 -0.0287647 -0.992763 
3.28903e-20 0 -1 
0.574515 -0.154729 -0.803736 
3.29061e-20 0 -1 
3.29017e-20 0 -1 
0.392198 -0.0379415 -0.919098 
-0.746499 -0.582196 -0.322161 
0.0521762 -0.218051 -0.974542 
3.29028e-20 0 -1 
3.29093e-20 0 -1 
0.367747 0.00718608 -0.929898 
0.173401 -0.0406197 -0.984013 
-0.0237337 -0.0576741 -0.998053 
-0.163335 -0.0393129 -0.985787 
0.00135283 0.487389 -0.873184 
0.179111 0.130931 -0.975078 
3.27108e-20 0 -1 
0.0535389 -0.115253 -0.991892 
3.27034e-20 0 -1 
3.27212e-20 0 -1 
3.2714e-20 0 -1 
0.554367 -0.600255 -0.576516 
-0.796735 0.396941 -0.455688 
0.961477 0.253608 -0.10604 
3.27147e-20 0 -1 
3.27241e-20 0 -1 
0.316261 0.212698 -0.924521 
0.38616 0.14851 -0.910398 
0.223969 -0.0510398 -0.973259 
-0.10247 -0.0825398 -0.991306 
-0.568729 -0.394193 0.721913 
-0.0215166 0.220298 0.975195 
-0.125219 -0.285242 -0.950241 
0.389482 0.160289 -0.906979 
3.24565e-20 0 -1 
0.298072 -0.034917 -0.953904 
3.24502e-20 0 -1 
-0.126412 0.453485 -0.882253 
3.24692e-20 0 -1 
3.24597e-20 0 -1 
0.187297 0.24825 -0.950417 
0.817835 0.158707 -0.553135 
-0.523242 -0.149158 -0.839029 
3.24598e-20 0 -1 
3.24719e-20 0 -1 
0.849358 0.381796 -0.364447 
-0.193071 0.153926 -0.969036 
0.00321789 -0.0328708 -0.999454 
0.00277966 0.938207 0.346065 
0.109913 0.080326 -0.99069 
3.21761e-20 0 -1 
0.531012 0.0448725 -0.846176 
3.2171e-20 0 -1 
-0.920922 -0.102933 0.37591 
3.21899e-20 0 -1 
3.2179e-20 0 -1 
0.578104 -0.544523 -0.607693 
3.21788e-20 0 -1 
3.21922e-20 0 -1 
0.061043 0.203203 -0.977232 
0.0973111 0.0719607 -0.992649 
-0.133816 -0.984183 -0.116091 
0.0695361 0.0458315 -0.996526 
3.19179e-20 0 -1 
0.752248 0.106369 -0.650238 
3.1914e-20 0 -1 
3.19312e-20 0 -1 
3.19203e-20 0 -1 
-0.773992 0.144051 0.616592 
3.192e-20 0 -1 
3.1933e-20 0 -1 
0.274842 0.201814 -0.940071 
0.0545021 0.0645716 -0.996424 
-0.0451355 0.493526 -0.868559 
-0.173503 0.556281 -0.81268 
0.0761149 0.101273 -0.991943 
3.17428e-20 0 -1 
-0.249527 0.0301969 -0.967897 
3.17398e-20 0 -1 
3.17509e-20 0 -1 
3.17445e-20 0 -1 
3.17444e-20 0 -1 
3.17519e-20 0 -1 
0.513426 0.254782 -0.819439 
-0.0743812 0.0290089 -0.996808 
0.0116822 -0.870861 0.49139 
0.115976 -0.508777 0.853051 
0.0838986 0.160495 -0.983464 
3.1704e-20 0 -1 
3.17041e-20 0 -1 
3.17018e-20 0 -1 
3.17036e-20 0 -1 
3.1704e-20 0 -1 
3.17019e-20 0 -1 
-0.250861 -0.0204603 -0.967807 
-0.120566 0.0210004 -0.992483 
-0.00484791 -0.0887445 0.996043 
0.0351019 -0.804769 0.59255 
0.0742736 0.217962 -0.973127 
3.19674e-20 0 -1 
3.19705e-20 0 -1 
3.19508e-20 0 -1 
3.19654e-20 0 -1 
3.19658e-20 0 -1 
3.19494e-20 0 -1 
0.0213306 0.0137209 -0.999678 
-0.0423935 0.0650585 -0.996981 
-0.00388223 -0.829412 -0.558624 
0.124846 0.228479 -0.965511 
3.23915e-20 0 -1 
3.23977e-20 0 -1 
3.23707e-20 0 -1 
3.23882e-20 0 -1 
-0.60604 0.184101 0.773836 
3.23882e-20 0 -1 
3.23681e-20 0 -1 
-0.2314 0.087353 -0.968929 
0.207027 -0.0110391 -0.978273 
0.0382202 0.0138035 -0.999174 
0.0825041 0.0490357 -0.995384 
3.32768e-20 0 1 
0.316238 0.00629092 -0.948659 
3.32886e-20 0 1 
3.32649e-20 0 1 
3.32715e-20 0 1 
0.460721 -0.00541296 -0.887528 
3.32707e-20 0 1 
3.32601e-20 0 1 
-0.528333 0.278053 -0.802216 
0.333282 0.133399 -0.933342 
-0.0209879 -0.103509 -0.994407 
0.0500721 0.352422 -0.934501 
3.28653e-20 0 -1 
3.28746e-20 0 -1 
3.28474e-20 0 -1 
3.28609e-20 0 -1 
3.28605e-20 0 -1 
3.28436e-20 0 -1 
0.0166146 0.0632609 -0.997859 
-1 0 0 
-1 1.77235e-16 4.57315e-17 
1.43781e-16 1 -9.684e-17 
4.61719e-17 1 0 
6.03128e-18 -1 0 
-1.41028e-17 -1 2.69559e-17 
-2.51226e-17 -2.63834e-17 1 
1.93665e-18 -5.63516e-17 1 
2.01982e-16 -6.31187e-17 1 
1.22988e-17 0 1 
1.34158e-16 2.12354e-16 1 
9.88236e-17 2.32842e-17 1 
-1.33901e-17 1.57558e-16 1 
3.03444e-17 2.21368e-17 1 
1.61983e-17 1.74287e-17 1 
8.82112e-17 4.51128e-17 1 
4.2475e-17 -1.50382e-16 1 
-2.13162e-16 4.041e-17 1 
2.41709e-17 -3.07661e-17 1 
-9.40033e-17 9.17468e-17 1 
3.29804e-20 0 1 
-8.63523e-18 1.01716e-17 1 
3.29947e-20 0 1 
3.2998e-20 0 1 
-3.29226e-17 8.2018e-17 1 
3.29922e-20 0 1 
2.28838e-16 8.83699e-17 1 
5.11081e-17 4.41034e-19 1 
-5.918e-18 5.849e-17 1 
3.54841e-18 1.83368e-16 1 
2.94267e-15 -9.31125e-17 1 
3.29889e-20 0 1 
3.29935e-20 0 1 
-6.83199e-17 -3.3721e-17 1 
7.26897e-17 0 1 
3.35195e-20 0 -1 
3.35141e-20 0 -1 
3.3527e-20 0 -1 
3.35212e-20 0 -1 