# vtk DataFile Version 2.0
Generated by NetDEM
ASCII 
DATASET POLYDATA
POINTS 392 double
-0.416903 -0.405407 -0.462843 
-0.403112 -0.399474 -0.388302 
-0.403333 -0.203333 -0.465617 
-0.403333 -0.203333 -0.382512 
-0.409968 -0.00772083 -0.46354 
-0.406763 -0.00991349 -0.389212 
-0.402763 0.397237 -0.465604 
-0.402763 0.397237 -0.382492 
-0.265486 -0.432185 -0.459405 
-0.304838 -0.407982 -0.387301 
-0.203538 -0.203538 -0.465607 
-0.203538 -0.203538 -0.382495 
-0.203218 -0.00321788 -0.46562 
-0.203218 -0.00321788 -0.382519 
-0.176149 0.207141 -0.457537 
-0.186873 0.199263 -0.378282 
-0.246796 0.369092 -0.465049 
-0.156773 0.415152 -0.445226 
-0.0400163 -0.396428 -0.455848 
-0.0545354 -0.389485 -0.380914 
-0.00366947 -0.203669 -0.465623 
-0.00366947 -0.203669 -0.382522 
-0.00360232 -0.00360232 -0.465612 
-0.00360232 -0.00360232 -0.382502 
-0.0404822 0.396056 -0.464422 
-0.0833524 0.442045 -0.362952 
0.190808 -0.397638 -0.463854 
0.192761 -0.395203 -0.391553 
0.173478 -0.21072 -0.464071 
0.178212 -0.192353 -0.38581 
0.173733 -0.00945653 -0.461881 
0.187263 -0.0117141 -0.383751 
0.159541 0.21042 -0.464984 
0.237705 0.178577 -0.399111 
0.396804 -0.401442 -0.450006 
0.396692 -0.450011 -0.362598 
0.386245 -0.0335186 -0.449965 
0.383969 0.0662166 -0.450259 
0.386245 -0.0335186 -0.449965 
0.375519 -0.124075 -0.409997 
0.383969 0.0662166 -0.450259 
0.440943 0.0886532 -0.371322 
-0.403112 -0.399474 -0.388302 
-0.402262 -0.403287 -0.316029 
-0.403333 -0.203333 -0.382512 
-0.403333 -0.203333 -0.299821 
-0.406763 -0.00991349 -0.389212 
-0.382668 -0.00279406 -0.311595 
-0.402763 0.397237 -0.382492 
-0.402763 0.397237 -0.299799 
-0.203538 -0.203538 -0.382495 
-0.203538 -0.203538 -0.2998 
-0.203218 -0.00321788 -0.382519 
-0.203218 -0.00321788 -0.29983 
-0.156773 0.415152 -0.445226 
-0.207375 0.450695 -0.384068 
-0.0545354 -0.389485 -0.380914 
0.0263784 -0.428464 -0.340965 
-0.0545354 -0.389485 -0.380914 
-0.147785 -0.411208 -0.371081 
-0.00366947 -0.203669 -0.382522 
-0.00366947 -0.203669 -0.299832 
-0.00360232 -0.00360232 -0.382502 
-0.00360232 -0.00360232 -0.299809 
0.0029393 0.255719 -0.443345 
-0.0355187 0.246727 -0.353809 
0.192761 -0.395203 -0.391553 
0.181936 -0.395879 -0.318436 
0.178212 -0.192353 -0.38581 
0.142876 -0.156473 -0.313787 
0.187263 -0.0117141 -0.383751 
0.189148 0.00518594 -0.30955 
0.396692 -0.450011 -0.362598 
0.395438 -0.430195 -0.264718 
0.375519 -0.124075 -0.409997 
0.396983 -0.205912 -0.357564 
0.404837 0.357682 -0.450766 
0.412556 0.382797 -0.34927 
-0.402262 -0.403287 -0.316029 
-0.415129 -0.408285 -0.243165 
-0.403333 -0.203333 -0.299821 
-0.403333 -0.203333 -0.217137 
-0.382668 -0.00279406 -0.311595 
-0.377354 0.00375336 -0.23548 
-0.402763 0.397237 -0.299799 
-0.402763 0.397237 -0.217116 
-0.181423 -0.358829 -0.454293 
-0.147785 -0.411208 -0.371081 
-0.203538 -0.203538 -0.2998 
-0.203538 -0.203538 -0.217116 
-0.203218 -0.00321788 -0.29983 
-0.203218 -0.00321788 -0.217145 
-0.186873 0.199263 -0.378282 
-0.17108 0.164094 -0.279965 
-0.207375 0.450695 -0.384068 
-0.248251 0.438426 -0.306139 
0.0263784 -0.428464 -0.340965 
0.0963027 -0.436526 -0.289284 
-0.00366947 -0.203669 -0.299832 
-0.00366947 -0.203669 -0.217147 
-0.00360232 -0.00360232 -0.299809 
-0.00360232 -0.00360232 -0.217124 
0.181936 -0.395879 -0.318436 
0.0963027 -0.436526 -0.289284 
0.181936 -0.395879 -0.318436 
0.20552 -0.396945 -0.22922 
0.189148 0.00518594 -0.30955 
0.192592 0.00547104 -0.236313 
0.395438 -0.430195 -0.264718 
0.395546 -0.337877 -0.226801 
0.396983 -0.205912 -0.357564 
0.405908 -0.247625 -0.267595 
-0.415129 -0.408285 -0.243165 
-0.415818 -0.411195 -0.154714 
-0.403333 -0.203333 -0.217137 
-0.403333 -0.203333 -0.134061 
-0.377354 0.00375336 -0.23548 
-0.38741 -0.00403142 -0.15543 
-0.402763 0.397237 -0.217116 
-0.402763 0.397237 -0.134042 
-0.203538 -0.203538 -0.217116 
-0.203538 -0.203538 -0.134043 
-0.203218 -0.00321788 -0.217145 
-0.203218 -0.00321788 -0.134069 
0.0963027 -0.436526 -0.289284 
0.0434913 -0.387314 -0.245538 
-0.00366947 -0.203669 -0.217147 
-0.00366947 -0.203669 -0.134071 
-0.00360232 -0.00360232 -0.217124 
-0.00360232 -0.00360232 -0.134051 
0.20552 -0.396945 -0.22922 
0.201495 -0.401177 -0.157756 
0.192592 0.00547104 -0.236313 
0.186276 0.00228217 -0.163621 
0.395546 -0.337877 -0.226801 
0.394884 -0.401719 -0.150489 
0.395546 -0.337877 -0.226801 
0.405908 -0.247625 -0.267595 
0.403668 -0.149001 -0.252048 
0.38639 -0.077042 -0.185041 
0.403668 -0.149001 -0.252048 
0.405908 -0.247625 -0.267595 
0.349665 0.328045 -0.285875 
0.397473 0.314508 -0.199135 
0.349665 0.328045 -0.285875 
0.412556 0.382797 -0.34927 
0.412556 0.382797 -0.34927 
0.400374 0.46112 -0.314983 
-0.415818 -0.411195 -0.154714 
-0.414003 -0.405277 -0.0786387 
-0.403333 -0.203333 -0.134061 
-0.403333 -0.203333 -0.0503891 
-0.38741 -0.00403142 -0.15543 
-0.431185 -0.00645901 -0.0938404 
-0.402763 0.397237 -0.134042 
-0.402763 0.397237 -0.0503704 
-0.203538 -0.203538 -0.134043 
-0.203538 -0.203538 -0.0503759 
-0.203218 -0.00321788 -0.134069 
-0.203218 -0.00321788 -0.0503943 
0.0434913 -0.387314 -0.245538 
-0.0322542 -0.379851 -0.20123 
-0.00366947 -0.203669 -0.134071 
-0.00366947 -0.203669 -0.050399 
-0.00360232 -0.00360232 -0.134051 
-0.00360232 -0.00360232 -0.0503824 
0.201495 -0.401177 -0.157756 
0.209552 -0.399244 -0.0784753 
0.186276 0.00228217 -0.163621 
0.18283 -0.00125972 -0.0866477 
0.19985 0.216459 -0.321327 
0.202645 0.280914 -0.247902 
0.394884 -0.401719 -0.150489 
0.397224 -0.450323 -0.0635283 
-0.414003 -0.405277 -0.0786387 
-0.410283 -0.400408 -0.000549768 
-0.403333 -0.203333 -0.0503891 
-0.403333 -0.203333 0.0339384 
-0.431185 -0.00645901 -0.0938404 
-0.428067 -0.0041535 0.0064844 
-0.402763 0.397237 -0.0503704 
-0.402763 0.397237 0.0339578 
-0.203538 -0.203538 -0.0503759 
-0.203538 -0.203538 0.0339463 
-0.203218 -0.00321788 -0.0503943 
-0.203218 -0.00321788 0.0339355 
-0.0322542 -0.379851 -0.20123 
-0.0288044 -0.399633 -0.10974 
-0.00366947 -0.203669 -0.050399 
-0.00366947 -0.203669 0.0339277 
-0.00360232 -0.00360232 -0.0503824 
-0.00360232 -0.00360232 0.0339407 
0.00874075 0.209602 -0.195716 
0.0188091 0.188552 -0.128236 
0.209552 -0.399244 -0.0784753 
0.18702 -0.4107 -0.00964522 
0.18283 -0.00125972 -0.0866477 
0.186826 -0.00306652 -0.00761437 
0.38639 -0.077042 -0.185041 
0.395493 -0.128431 -0.0998146 
0.38639 -0.077042 -0.185041 
0.394202 0.0161535 -0.150251 
0.450248 0.0858908 -0.194258 
0.394202 0.0161535 -0.150251 
-0.410283 -0.400408 -0.000549768 
-0.409906 -0.40088 0.0773759 
-0.403333 -0.203333 0.0339384 
-0.403333 -0.203333 0.1189 
-0.428067 -0.0041535 0.0064844 
-0.415303 0.000581391 0.0768362 
-0.402763 0.397237 0.0339578 
-0.402763 0.397237 0.11892 
-0.203538 -0.203538 0.0339463 
-0.203538 -0.203538 0.118903 
-0.203218 -0.00321788 0.0339355 
-0.203218 -0.00321788 0.118899 
-0.00366947 -0.203669 0.0339277 
-0.00366947 -0.203669 0.118888 
-0.00360232 -0.00360232 0.0339407 
-0.00360232 -0.00360232 0.118898 
0.18702 -0.4107 -0.00964522 
0.197607 -0.406219 0.0848671 
0.195784 -0.198171 -0.0312952 
0.189978 -0.193781 0.0565781 
0.186826 -0.00306652 -0.00761437 
0.193178 -0.00721712 0.0692654 
0.203416 0.191678 -0.194223 
0.202131 0.171865 -0.108434 
0.395493 -0.128431 -0.0998146 
0.39778 -0.199257 -0.02932 
0.394202 0.0161535 -0.150251 
0.392642 0.0284394 -0.0511185 
-0.409906 -0.40088 0.0773759 
-0.411537 -0.404411 0.156191 
-0.403333 -0.203333 0.1189 
-0.403333 -0.203333 0.204431 
-0.415303 0.000581391 0.0768362 
-0.400927 -0.00136629 0.151098 
-0.402763 0.397237 0.11892 
-0.402763 0.397237 0.204451 
-0.203538 -0.203538 0.118903 
-0.203538 -0.203538 0.20443 
-0.203218 -0.00321788 0.118899 
-0.203218 -0.00321788 0.204431 
-0.00366947 -0.203669 0.118888 
-0.00366947 -0.203669 0.204419 
-0.00360232 -0.00360232 0.118898 
-0.00360232 -0.00360232 0.204426 
0.197607 -0.406219 0.0848671 
0.194251 -0.405315 0.15601 
0.193178 -0.00721712 0.0692654 
0.193812 -0.00884821 0.142856 
0.202131 0.171865 -0.108434 
0.188268 0.204706 -0.0260026 
-0.411537 -0.404411 0.156191 
-0.407271 -0.408285 0.235908 
-0.403333 -0.203333 0.204431 
-0.403333 -0.203333 0.290439 
-0.400927 -0.00136629 0.151098 
-0.402907 -0.00300364 0.228627 
-0.402763 0.397237 0.204451 
-0.402763 0.397237 0.290457 
-0.203538 -0.203538 0.20443 
-0.203538 -0.203538 0.290437 
-0.203218 -0.00321788 0.204431 
-0.203218 -0.00321788 0.290441 
-0.00366947 -0.203669 0.204419 
-0.00366947 -0.203669 0.290429 
-0.00360232 -0.00360232 0.204426 
-0.00360232 -0.00360232 0.290434 
0.194251 -0.405315 0.15601 
0.20156 -0.398812 0.232167 
0.193812 -0.00884821 0.142856 
0.193821 -0.00499776 0.22531 
-0.407271 -0.408285 0.235908 
-0.407615 -0.403547 0.312969 
-0.403333 -0.203333 0.463455 
-0.403333 -0.203333 0.376818 
-0.402907 -0.00300364 0.228627 
-0.406497 -0.00570668 0.30769 
-0.402763 0.397237 0.463462 
-0.402763 0.397237 0.376832 
-0.203538 -0.203538 0.463454 
-0.203538 -0.203538 0.376816 
-0.203218 -0.00321788 0.463456 
-0.203218 -0.00321788 0.37682 
-0.00366947 -0.203669 0.463451 
-0.00366947 -0.203669 0.376811 
-0.00360232 -0.00360232 0.463453 
-0.00360232 -0.00360232 0.376814 
0.20156 -0.398812 0.232167 
0.191462 -0.401217 0.306467 
-0.403333 -0.203333 0.290439 
-0.403333 -0.203333 0.376818 
-0.406497 -0.00570668 0.30769 
-0.404295 -0.00273612 0.395787 
-0.402763 0.397237 0.290457 
-0.402763 0.397237 0.376832 
-0.203538 -0.203538 0.290437 
-0.203538 -0.203538 0.376816 
-0.203218 -0.00321788 0.290441 
-0.203218 -0.00321788 0.37682 
-0.00366947 -0.203669 0.290429 
-0.00366947 -0.203669 0.376811 
-0.00360232 -0.00360232 0.290434 
-0.00360232 -0.00360232 0.376814 
-0.428067 -0.0041535 0.0064844 
-0.500001 0.0153415 0.0215269 
0.450248 0.0858908 -0.194258 
0.5 0.0858655 -0.194231 
0.0263784 -0.428464 -0.340965 
0.0338638 -0.500007 -0.316359 
0.396692 -0.450011 -0.362598 
0.396692 -0.5 -0.362589 
0.397224 -0.450323 -0.0635283 
0.39722 -0.5 -0.0634617 
0.400374 0.46112 -0.314983 
0.419668 0.500073 -0.340781 
-0.207375 0.450695 -0.384068 
-0.185556 0.500001 -0.388488 
-0.402763 0.397237 -0.465604 
-0.402763 0.397237 -0.5 
0.173733 -0.00945653 -0.461881 
0.205668 -0.00248916 -0.500041 
-0.409968 -0.00772083 -0.46354 
-0.395045 -0.00933026 -0.50004 
0.404837 0.357682 -0.450766 
0.392007 0.351467 -0.500065 
-0.181423 -0.358829 -0.454293 
-0.191537 -0.364157 -0.500004 
0.396804 -0.401442 -0.450006 
0.396804 -0.401445 -0.5 
-0.0404822 0.396056 -0.464422 
-0.040977 0.402058 -0.500007 
-0.416903 -0.405407 -0.462843 
-0.392079 -0.405147 -0.500032 
0.0029393 0.255719 -0.443345 
-0.0291944 0.214803 -0.500009 
0.190808 -0.397638 -0.463854 
0.206054 -0.401181 -0.500061 
0.173478 -0.21072 -0.464071 
0.171907 -0.194432 -0.500012 
-0.246796 0.369092 -0.465049 
-0.244169 0.388473 -0.500005 
-0.265486 -0.432185 -0.459405 
-0.260745 -0.419197 -0.500005 
-0.403333 -0.203333 -0.465617 
-0.403333 -0.203333 -0.5 
0.283352 0.0625039 -0.440405 
0.294979 0.0527984 -0.500003 
-0.0400163 -0.396428 -0.455848 
-0.0191321 -0.387071 -0.500013 
-0.301666 0.160801 -0.465044 
-0.295352 0.139485 -0.500001 
-0.203218 -0.00321788 -0.46562 
-0.203218 -0.00321788 -0.5 
0.0513186 0.345042 -0.441198 
0.055466 0.347518 -0.500003 
-0.00366947 -0.203669 -0.465623 
-0.00366947 -0.203669 -0.5 
0.383969 0.0662166 -0.450259 
0.383957 0.0661828 -0.5 
-0.176149 0.207141 -0.457537 
-0.195437 0.214343 -0.500008 
0.370134 0.439772 -0.464725 
0.324185 0.44978 -0.500002 
-0.156773 0.415152 -0.445226 
-0.136697 0.406381 -0.500007 
0.0299524 0.186046 -0.452823 
0.0234378 0.175197 -0.500003 
0.159541 0.21042 -0.464984 
0.174007 0.197411 -0.500002 
0.198276 0.11224 -0.455614 
0.208858 0.144597 -0.500002 
-0.203538 -0.203538 -0.465607 
-0.203538 -0.203538 -0.5 
0.186699 0.354652 -0.444852 
0.187614 0.364587 -0.500002 
-0.00360232 -0.00360232 -0.465612 
-0.00360232 -0.00360232 -0.5 
-0.00366947 -0.203669 0.463451 
-0.00366947 -0.203669 0.5 
-0.203538 -0.203538 0.463454 
-0.203538 -0.203538 0.5 
-0.403333 -0.203333 0.463455 
-0.403333 -0.203333 0.5 
-0.203218 -0.00321788 0.463456 
-0.203218 -0.00321788 0.5 
-0.00360232 -0.00360232 0.463453 
-0.00360232 -0.00360232 0.5 
-0.402763 0.397237 0.463462 
-0.402763 0.397237 0.5 
LINES 196 588
2 0 1
2 2 3
2 4 5
2 6 7
2 8 9
2 10 11
2 12 13
2 14 15
2 16 17
2 18 19
2 20 21
2 22 23
2 24 25
2 26 27
2 28 29
2 30 31
2 32 33
2 34 35
2 36 37
2 38 39
2 40 41
2 42 43
2 44 45
2 46 47
2 48 49
2 50 51
2 52 53
2 54 55
2 56 57
2 58 59
2 60 61
2 62 63
2 64 65
2 66 67
2 68 69
2 70 71
2 72 73
2 74 75
2 76 77
2 78 79
2 80 81
2 82 83
2 84 85
2 86 87
2 88 89
2 90 91
2 92 93
2 94 95
2 96 97
2 98 99
2 100 101
2 102 103
2 104 105
2 106 107
2 108 109
2 110 111
2 112 113
2 114 115
2 116 117
2 118 119
2 120 121
2 122 123
2 124 125
2 126 127
2 128 129
2 130 131
2 132 133
2 134 135
2 136 137
2 138 139
2 140 141
2 142 143
2 144 145
2 146 147
2 148 149
2 150 151
2 152 153
2 154 155
2 156 157
2 158 159
2 160 161
2 162 163
2 164 165
2 166 167
2 168 169
2 170 171
2 172 173
2 174 175
2 176 177
2 178 179
2 180 181
2 182 183
2 184 185
2 186 187
2 188 189
2 190 191
2 192 193
2 194 195
2 196 197
2 198 199
2 200 201
2 202 203
2 204 205
2 206 207
2 208 209
2 210 211
2 212 213
2 214 215
2 216 217
2 218 219
2 220 221
2 222 223
2 224 225
2 226 227
2 228 229
2 230 231
2 232 233
2 234 235
2 236 237
2 238 239
2 240 241
2 242 243
2 244 245
2 246 247
2 248 249
2 250 251
2 252 253
2 254 255
2 256 257
2 258 259
2 260 261
2 262 263
2 264 265
2 266 267
2 268 269
2 270 271
2 272 273
2 274 275
2 276 277
2 278 279
2 280 281
2 282 283
2 284 285
2 286 287
2 288 289
2 290 291
2 292 293
2 294 295
2 296 297
2 298 299
2 300 301
2 302 303
2 304 305
2 306 307
2 308 309
2 310 311
2 312 313
2 314 315
2 316 317
2 318 319
2 320 321
2 322 323
2 324 325
2 326 327
2 328 329
2 330 331
2 332 333
2 334 335
2 336 337
2 338 339
2 340 341
2 342 343
2 344 345
2 346 347
2 348 349
2 350 351
2 352 353
2 354 355
2 356 357
2 358 359
2 360 361
2 362 363
2 364 365
2 366 367
2 368 369
2 370 371
2 372 373
2 374 375
2 376 377
2 378 379
2 380 381
2 382 383
2 384 385
2 386 387
2 388 389
2 390 391
POINT_DATA 392
SCALARS id int 1
LOOKUP_TABLE default
0
25
1
26
2
27
4
29
5
30
6
31
7
32
8
58
9
34
10
35
11
36
12
37
14
114
15
40
16
41
17
42
18
93
20
45
22
23
22
47
23
48
25
50
26
51
27
52
29
54
31
56
32
57
34
59
35
60
35
80
36
61
37
62
38
63
40
65
41
66
42
67
45
70
47
71
49
99
50
75
51
76
52
77
54
79
55
80
56
81
57
82
58
108
59
84
60
85
61
86
62
87
65
85
65
90
67
92
70
95
71
121
75
100
76
101
77
102
79
104
81
106
82
107
85
110
86
111
87
112
90
115
92
117
95
120
95
121
96
147
96
121
98
173
98
99
99
124
100
125
101
126
102
127
104
129
106
131
107
132
110
135
111
136
112
137
115
140
117
142
118
143
120
145
125
150
126
151
127
152
129
154
131
156
132
157
135
160
136
161
137
162
138
163
140
165
142
167
147
171
147
172
148
172
150
175
151
176
152
177
154
179
156
181
157
182
161
186
162
187
165
190
166
191
167
192
168
193
171
196
172
197
175
200
176
201
177
202
179
204
181
206
182
207
186
211
187
212
190
215
192
217
193
218
200
225
201
251
202
227
204
254
206
256
207
257
211
261
212
262
215
240
217
242
225
250
226
276
227
252
229
279
231
281
232
282
236
286
237
287
240
265
251
276
252
277
254
279
256
281
257
282
261
286
262
287
152
0
148
1
60
2
45
2
145
2
124
3
59
3
4
4
17
4
2
4
49
4
55
4
20
4
14
4
0
4
38
4
15
4
16
4
9
4
5
4
1
4
68
4
10
4
33
4
7
4
39
4
11
4
23
4
8
4
24
4
34
4
13
4
18
4
43
4
6
4
64
4
12
4
236
5
231
5
226
5
232
5
237
5
229
5
CELL_DATA 196
VECTORS force double
3.88689 1.01254 -109.245 
0 0 -36975.1 
0.277106 -7.8224 -113.414 
0 0 -36967.3 
2.42912 0.527716 -7.56441 
0 0 -36964.3 
0 0 -36979.7 
-2.84313 2.98293 -18.1205 
-7.16677 -2.27891 -11.9738 
5.2649 5.11726 -31.0975 
0 0 -36979 
0 0 -36968.3 
3.85413 -4.93747 -14.3796 
22.538 0.264473 -211.318 
0.351761 0.44414 -25.5035 
-2.30005 -6.01693 -167.224 
1.11746 -0.00864543 -2.44716 
0.688952 21.4662 -64.2861 
5.0437 -489.444 291.075 
11.9139 730.808 -139.258 
-79.8991 -36.0832 -308.923 
3.59117 1.41104 -89.7952 
0 0 -36147.5 
-0.0843901 -6.67537 -91.6555 
0 0 -36144.3 
0 0 -36144.4 
0 0 -36148.7 
12.4113 -5.75361 -28.5601 
-7.27886 3.74812 -17.5373 
6.04984 -0.817369 -2.7811 
0 0 -36149.1 
0 0 -36145.7 
-0.905288 -3.09549 -7.1175 
47.6019 15.6794 -183.761 
1.03527 -0.17281 -11.5221 
2.63324 -2.49698 -152.796 
7.77225 -387.787 -445.546 
-100.256 567.127 -475.678 
6.36055 -43.0526 -236.688 
6.49186 1.92159 -73.3 
0 0 -34729.5 
-0.627974 -3.17044 -63.9249 
0 0 -34727.4 
-2.89383 2.12681 -8.06828 
0 0 -34733.5 
0 0 -34727.6 
0.559925 2.16949 -7.21933 
3.86696 -3.84724 -14.2467 
-27.6052 -26.2822 -11.0522 
0 0 -34730.9 
0 0 -34733 
67.431 12.8329 -51.2787 
1.57859 -3.74239 -105.536 
7.86549 -1.38195 -129.881 
-18.6709 -427.066 -711.09 
-60.8273 295.081 -526.213 
3.7862 0.769436 -60.465 
0 0 -33092.9 
0.966876 4.39169 -43.588 
0 0 -33088.8 
0 0 -33101.1 
0 0 -33089.2 
38.9706 -17.0357 -43.9844 
0 0 -33095.8 
0 0 -33100 
2.08744 -2.85434 -77.9507 
7.81039 -0.149059 -111.574 
-2.25134 207.24 -675.066 
-13.1978 -312.469 323.426 
39.6504 -280.567 -192.556 
-1.01774 35.8015 140.515 
10.3226 -4.90815 -21.8699 
-53.12 -120.239 91.8604 
-56.0254 -293.773 -5.19804 
2.24548 3.69118 -45.9642 
0 0 -31494.3 
3.10667 6.38121 -36.0917 
0 0 -31488.5 
0 0 -31504.1 
0 0 -31489.7 
26.1513 -12.2649 -23.4029 
0 0 -31498.2 
0 0 -31503 
6.30418 0.574113 -63.7905 
6.88618 3.12966 -87.9479 
-16.3994 -78.76 -74.0745 
-2.88949 340.931 -338.055 
2.25681 3.67985 -33.6127 
0 0 -30044.4 
3.10559 9.18744 -43.4003 
0 0 -30038.9 
0 0 -30053.5 
0 0 -30040 
9.47991 -3.97289 -4.87345 
0 0 -30048 
0 0 -30052.5 
0.00774196 -0.0241874 0.227896 
2.30602 7.83728 -56.8237 
8.23388 3.33568 -54.8156 
1.83819 114.713 -88.5369 
-30.0351 -420.223 -114.834 
326.385 329.113 -131.951 
2.24269 -3.7725 -23.1202 
0 0 -28796.9 
-5.02412 -2.65235 -79.5922 
0 0 -28794.3 
0 0 -28803.9 
0 0 -28793.6 
0 0 -28798.7 
0 0 -28802.8 
-1.14532 -5.62285 -57.7293 
7.90866 -21.3707 -33.4042 
6.39081 2.78607 -29.9992 
-2.25763 -3.4771 -21.068 
-7.24902 49.7365 -73.9148 
22.8321 -29.3143 -149.254 
-21.2185 -4.07538 -38.8809 
0 0 -27780.3 
-42.1981 10.0103 -147.471 
0 0 -27782.5 
0 0 -27784.3 
0 0 -27778.6 
0 0 -27779.4 
0 0 -27783 
-1.49506 -2.68196 -47.389 
3.61237 1.85337 -14.4069 
8.53913 0.00306531 -12.1342 
-60.6719 -27.7156 -172.412 
0 0 -27005.9 
-35.8523 2.53746 -194.965 
0 0 -27013.2 
0 0 -27006.8 
0 0 -27005.8 
0 0 -27001.8 
0 0 -27005.2 
-2.78019 1.23242 -31.2525 
1.81384 0.438927 -2.6792 
-8.51096 -7.06816 -80.1182 
0 0 26113.6 
10.1625 -7.13059 -156.532 
0 0 26128.7 
0 0 26110.1 
0 0 26115.7 
0 0 26104.7 
0 0 26107.9 
3.50794 2.14443 -13.5518 
0 0 -26461.6 
24.0139 15.9321 -38.7409 
0 0 -26473.4 
0 0 -26459.9 
0 0 -26462.8 
0 0 -26454.7 
0 0 -26457.9 
1.39502 1.8084 13.5215 
-454.826 -174.158 104.756 
15.1808 31.4295 6.74446 
-6.51883 186.56 418.092 
-5.08488 222.788 -165.391 
-82.0414 -341.532 48.2215 
3.47111 0.279139 -2.33325 
0 0 36932.9 
3.74407 6.31136 179.9 
2.76184 10.6524 137.47 
57.4805 36.9507 268.188 
3.21929 -2.81489 17.6988 
0.00119869 0.680061 5.90296 
-5.43452 2.04183 32.4565 
-4.68422 -0.47314 124.705 
6.20629 7.56565 18.4657 
-15.0167 -0.859758 247.049 
-0.101604 0.797425 42.4011 
8.54383 2.46652 27.4479 
-1.45517 -1.10495 20.9896 
0 0 36952.9 
-1.94459 1.57455 13.06 
-6.20037 -7.03644 44.6691 
0.407479 -0.358946 13.618 
0 0 36961.4 
-0.715424 -0.433227 13.562 
0 0 36963.1 
161.835 -386.849 697.162 
6.93168 -4.73297 29.7014 
4.72062 -0.91012 7.08072 
-20.9707 13.8996 29.4195 
0.754363 1.90526 12.0755 
-2.03016 2.07912 13.9201 
-1.46253 -4.30876 9.74981 
0 0 36932.2 
0.0567023 -2.27609 8.48865 
0 0 36940.7 
0 0 -25910.9 
0 0 -25916.4 
0 0 -25920.9 
0 0 -25923.6 
0 0 -25914.1 
0 0 -25937.9 
VECTORS moment double
0 0 0 
0 0 0 
0 0 0 
0 0 0 
0 0 0 
0 0 0 
0 0 0 
0 0 0 
0 0 0 
0 0 0 
0 0 0 
0 0 0 
0 0 0 
0 0 0 
0 0 0 
0 0 0 
0 0 0 
0 0 0 
0 0 0 
0 0 0 
0 0 0 
0 0 0 
0 0 0 
0 0 0 
0 0 0 
0 0 0 
0 0 0 
0 0 0 
0 0 0 
0 0 0 
0 0 0 
0 0 0 
0 0 0 
0 0 0 
0 0 0 
0 0 0 
0 0 0 
0 0 0 
0 0 0 
0 0 0 
0 0 0 
0 0 0 
0 0 0 
0 0 0 
0 0 0 
0 0 0 
0 0 0 
0 0 0 
0 0 0 
0 0 0 
0 0 0 
0 0 0 
0 0 0 
0 0 0 
0 0 0 
0 0 0 
0 0 0 
0 0 0 
0 0 0 
0 0 0 
0 0 0 
0 0 0 
0 0 0 
0 0 0 
0 0 0 
0 0 0 
0 0 0 
0 0 0 
0 0 0 
0 0 0 
0 0 0 
0 0 0 
0 0 0 
0 0 0 
0 0 0 
0 0 0 
0 0 0 
0 0 0 
0 0 0 
0 0 0 
0 0 0 
0 0 0 
0 0 0 
0 0 0 
0 0 0 
0 0 0 
0 0 0 
0 0 0 
0 0 0 
0 0 0 
0 0 0 
0 0 0 
0 0 0 
0 0 0 
0 0 0 
0 0 0 
0 0 0 
0 0 0 
0 0 0 
0 0 0 
0 0 0 
0 0 0 
0 0 0 
0 0 0 
0 0 0 
0 0 0 
0 0 0 
0 0 0 
0 0 0 
0 0 0 
0 0 0 
0 0 0 
0 0 0 
0 0 0 
0 0 0 
0 0 0 
0 0 0 
0 0 0 
0 0 0 
0 0 0 
0 0 0 
0 0 0 
0 0 0 
0 0 0 
0 0 0 
0 0 0 
0 0 0 
0 0 0 
0 0 0 
0 0 0 
0 0 0 
0 0 0 
0 0 0 
0 0 0 
0 0 0 
0 0 0 
0 0 0 
0 0 0 
0 0 0 
0 0 0 
0 0 0 
0 0 0 
0 0 0 
0 0 0 
0 0 0 
0 0 0 
0 0 0 
0 0 0 
0 0 0 
0 0 0 
0 0 0 
0 0 0 
0 0 0 
0 0 0 
0 0 0 
0 0 0 
0 0 0 
0 0 0 
0 0 0 
0 0 0 
0 0 0 
0 0 0 
0 0 0 
0 0 0 
0 0 0 
0 0 0 
0 0 0 
0 0 0 
0 0 0 
0 0 0 
0 0 0 
0 0 0 
0 0 0 
0 0 0 
0 0 0 
0 0 0 
0 0 0 
0 0 0 
0 0 0 
0 0 0 
0 0 0 
0 0 0 
0 0 0 
0 0 0 
0 0 0 
0 0 0 
0 0 0 
0 0 0 
0 0 0 
0 0 0 
0 0 0 
0 0 0 
0 0 0 
0 0 0 
0 0 0 
0 0 0 
SCALARS num_collisions int 1
LOOKUP_TABLE default
1 
1 
1 
1 
1 
1 
1 
1 
1 
1 
1 
1 
1 
1 
1 
1 
1 
1 
1 
1 
1 
1 
1 
1 
1 
1 
1 
1 
1 
1 
1 
1 
1 
1 
1 
1 
1 
1 
1 
1 
1 
1 
1 
1 
1 
1 
1 
1 
1 
1 
1 
1 
1 
1 
1 
1 
1 
1 
1 
1 
1 
1 
1 
1 
1 
1 
1 
1 
1 
1 
1 
1 
1 
1 
1 
1 
1 
1 
1 
1 
1 
1 
1 
1 
1 
1 
1 
1 
1 
1 
1 
1 
1 
1 
1 
1 
1 
1 
1 
1 
1 
1 
1 
1 
1 
1 
1 
1 
1 
1 
1 
1 
1 
1 
1 
1 
1 
1 
1 
1 
1 
1 
1 
1 
1 
1 
1 
1 
1 
1 
1 
1 
1 
1 
1 
1 
1 
1 
1 
1 
1 
1 
1 
1 
1 
1 
1 
1 
1 
1 
1 
1 
1 
1 
1 
1 
1 
1 
1 
1 
1 
1 
1 
1 
1 
1 
1 
1 
1 
1 
1 
1 
1 
1 
1 
1 
1 
1 
1 
1 
1 
1 
1 
1 
1 
1 
1 
1 
1 
1 
1 
1 
1 
1 
1 
1 
VECTORS pos double
-0.392054 -0.401304 -0.424011 
-0.403333 -0.203333 -0.42369 
-0.390282 -0.00318763 -0.424131 
-0.402763 0.397237 -0.423673 
-0.269442 -0.410707 -0.42086 
-0.203538 -0.203538 -0.423676 
-0.203218 -0.00321788 -0.423695 
-0.181099 0.2002 -0.420769 
-0.200863 0.394359 -0.45537 
-0.025892 -0.400045 -0.417044 
-0.00366947 -0.203669 -0.423698 
-0.00360232 -0.00360232 -0.423682 
-0.0643477 0.41335 -0.428199 
0.200725 -0.39759 -0.425513 
0.170516 -0.18087 -0.423435 
0.209635 0.000243136 -0.425571 
0.186527 0.186731 -0.430158 
0.396748 -0.425724 -0.406297 
0.385115 0.0163151 -0.450113 
0.380936 -0.0787981 -0.429923 
0.412431 0.0773971 -0.410768 
-0.387982 -0.403386 -0.349267 
-0.403333 -0.203333 -0.340634 
-0.387144 0.0013273 -0.347593 
-0.402763 0.397237 -0.340612 
-0.203538 -0.203538 -0.340614 
-0.203218 -0.00321788 -0.340642 
-0.197899 0.435357 -0.429394 
-0.00910453 -0.413319 -0.372969 
-0.0956025 -0.425149 -0.384727 
-0.00366947 -0.203669 -0.340645 
-0.00360232 -0.00360232 -0.340622 
-0.00826292 0.232598 -0.396449 
0.194972 -0.402439 -0.352116 
0.155378 -0.172123 -0.35186 
0.211561 0.0048774 -0.34937 
0.396069 -0.440101 -0.313638 
0.386281 -0.164958 -0.383642 
0.405118 0.366217 -0.403773 
-0.394622 -0.405006 -0.272339 
-0.403333 -0.203333 -0.257892 
-0.383929 0.0110171 -0.274402 
-0.402763 0.397237 -0.25787 
-0.168589 -0.401585 -0.41277 
-0.203538 -0.203538 -0.25787 
-0.203218 -0.00321788 -0.257901 
-0.173667 0.182929 -0.329671 
-0.23435 0.428808 -0.364562 
0.0506251 -0.45348 -0.304151 
-0.00366947 -0.203669 -0.257903 
-0.00360232 -0.00360232 -0.257879 
0.139549 -0.417571 -0.328034 
0.209515 -0.397787 -0.266338 
0.212938 0.0047825 -0.273387 
0.3955 -0.384048 -0.24569 
0.401405 -0.226774 -0.312456 
-0.398229 -0.406128 -0.189708 
-0.403333 -0.203333 -0.175035 
-0.391052 0.0136311 -0.200737 
-0.402763 0.397237 -0.175015 
-0.203538 -0.203538 -0.175015 
-0.203218 -0.00321788 -0.175043 
0.0629204 -0.410215 -0.264309 
-0.00366947 -0.203669 -0.175045 
-0.00360232 -0.00360232 -0.175023 
0.211211 -0.399731 -0.192649 
0.207012 0.00649789 -0.198686 
0.395228 -0.369804 -0.18854 
0.4007 -0.292786 -0.247097 
0.395024 -0.113063 -0.218516 
0.404738 -0.198364 -0.259758 
0.373587 0.321262 -0.242439 
0.371239 0.355413 -0.321635 
0.403602 0.425947 -0.332309 
-0.396291 -0.403148 -0.112424 
-0.403333 -0.203333 -0.0917266 
-0.396945 -0.00112586 -0.1075 
-0.402763 0.397237 -0.091708 
-0.203538 -0.203538 -0.0917101 
-0.203218 -0.00321788 -0.0917333 
0.0185078 -0.396545 -0.216646 
-0.00366947 -0.203669 -0.0917363 
-0.00360232 -0.00360232 -0.0917173 
0.20731 -0.389252 -0.114088 
0.207327 0.00561863 -0.122158 
0.213479 0.251042 -0.296461 
0.396062 -0.426027 -0.106925 
-0.396211 -0.41542 -0.0362753 
-0.403333 -0.203333 -0.00781044 
-0.402124 -0.00877833 -0.0400053 
-0.402763 0.397237 -0.00779202 
-0.203538 -0.203538 -0.00779898 
-0.203218 -0.00321788 -0.00781491 
-0.032001 -0.376747 -0.154199 
-0.00366947 -0.203669 -0.00782034 
-0.00360232 -0.00360232 -0.00780511 
-0.0152237 0.214926 -0.156012 
0.201674 -0.407904 -0.0421888 
0.21079 0.00587525 -0.0464502 
0.390958 -0.102769 -0.142401 
0.390329 -0.0304784 -0.167615 
0.422245 0.0509912 -0.172223 
-0.39244 -0.411648 0.0415171 
-0.403333 -0.203333 0.0767463 
-0.42691 -0.013481 0.042125 
-0.402763 0.397237 0.0767655 
-0.203538 -0.203538 0.0767526 
-0.203218 -0.00321788 0.0767442 
-0.00366947 -0.203669 0.0767356 
-0.00360232 -0.00360232 0.0767475 
0.200462 -0.404164 0.048235 
0.177057 -0.20673 0.0093806 
0.214289 0.00136709 0.0294464 
0.218293 0.184312 -0.148098 
0.396635 -0.163821 -0.0644835 
0.393446 0.0222675 -0.100651 
-0.383344 -0.414309 0.11963 
-0.403333 -0.203333 0.16191 
-0.408671 0.00743059 0.115374 
-0.402763 0.397237 0.16193 
-0.203538 -0.203538 0.161912 
-0.203218 -0.00321788 0.16191 
-0.00366947 -0.203669 0.161899 
-0.00360232 -0.00360232 0.161907 
0.201372 -0.399502 0.121119 
0.212164 -0.00185441 0.105544 
0.215787 0.204391 -0.0796593 
-0.388727 -0.39997 0.202051 
-0.403333 -0.203333 0.247607 
-0.388006 -0.00361426 0.195752 
-0.402763 0.397237 0.247626 
-0.203538 -0.203538 0.247606 
-0.203218 -0.00321788 0.247608 
-0.00366947 -0.203669 0.247597 
-0.00360232 -0.00360232 0.247603 
0.214221 -0.392699 0.198748 
0.217325 0.0010396 0.181631 
-0.388717 -0.394159 0.280842 
-0.403333 -0.203333 0.420203 
-0.390571 0.0066973 0.276721 
-0.402763 0.397237 0.420213 
-0.203538 -0.203538 0.420201 
-0.203218 -0.00321788 0.420204 
-0.00366947 -0.203669 0.420197 
-0.00360232 -0.00360232 0.4202 
0.214344 -0.407176 0.276681 
-0.403333 -0.203333 0.333742 
-0.385865 -0.00612779 0.359656 
-0.402763 0.397237 0.333757 
-0.203538 -0.203538 0.33374 
-0.203218 -0.00321788 0.333744 
-0.00366947 -0.203669 0.333733 
-0.00360232 -0.00360232 0.333737 
-0.500001 0.0153415 0.0215269 
0.5 0.0858655 -0.194231 
0.0338638 -0.500007 -0.316359 
0.396692 -0.5 -0.362589 
0.39722 -0.5 -0.0634617 
0.419668 0.500073 -0.340781 
-0.185556 0.500001 -0.388488 
-0.402763 0.397237 -0.5 
0.205668 -0.00248916 -0.500041 
-0.395045 -0.00933026 -0.50004 
0.392007 0.351467 -0.500065 
-0.191537 -0.364157 -0.500004 
0.396804 -0.401445 -0.5 
-0.040977 0.402058 -0.500007 
-0.392079 -0.405147 -0.500032 
-0.0291944 0.214803 -0.500009 
0.206054 -0.401181 -0.500061 
0.171907 -0.194432 -0.500012 
-0.244169 0.388473 -0.500005 
-0.260745 -0.419197 -0.500005 
-0.403333 -0.203333 -0.5 
0.294979 0.0527984 -0.500003 
-0.0191321 -0.387071 -0.500013 
-0.295352 0.139485 -0.500001 
-0.203218 -0.00321788 -0.5 
0.055466 0.347518 -0.500003 
-0.00366947 -0.203669 -0.5 
0.383957 0.0661828 -0.5 
-0.195437 0.214343 -0.500008 
0.324185 0.44978 -0.500002 
-0.136697 0.406381 -0.500007 
0.0234378 0.175197 -0.500003 
0.174007 0.197411 -0.500002 
0.208858 0.144597 -0.500002 
-0.203538 -0.203538 -0.5 
0.187614 0.364587 -0.500002 
-0.00360232 -0.00360232 -0.5 
-0.00366947 -0.203669 0.5 
-0.203538 -0.203538 0.5 
-0.403333 -0.203333 0.5 
-0.203218 -0.00321788 0.5 
-0.00360232 -0.00360232 0.5 
-0.402763 0.397237 0.5 
VECTORS dir_n double
-0.0580768 -0.00607892 -0.998294 
2.70452e-20 0 -1 
0.124258 -0.0291701 -0.991821 
2.70509e-20 0 -1 
0.566859 -0.155055 -0.809092 
2.70531e-20 0 -1 
2.70419e-20 0 -1 
0.379665 -0.0378564 -0.924349 
-0.744483 -0.580579 -0.329657 
0.043167 -0.21795 -0.975005 
2.70424e-20 0 -1 
2.70502e-20 0 -1 
0.330982 0.0334384 -0.943044 
0.17732 -0.0456939 -0.983092 
-0.0305824 -0.0487971 -0.99834 
-0.162969 -0.0389642 -0.985861 
-0.333895 0.541002 -0.771901 
0.00112113 0.485596 -0.874183 
0.0232251 -0.999726 0.0027625 
0.10723 0.908968 -0.402838 
-0.569999 -0.22449 -0.790383 
0.178005 0.132156 -0.975115 
2.76645e-20 0 -1 
0.0575069 -0.113324 -0.991892 
2.76669e-20 0 -1 
2.76668e-20 0 -1 
2.76635e-20 0 -1 
0.550639 -0.598413 -0.581978 
-0.792993 0.401745 -0.457998 
0.955732 0.272674 -0.110567 
2.76632e-20 0 -1 
2.76658e-20 0 -1 
0.326091 0.219511 -0.9195 
0.394582 0.131159 -0.909452 
0.183462 -0.0221407 -0.982777 
-0.103159 -0.0825616 -0.991233 
0.0124765 -0.198244 -0.980073 
-0.214667 0.822232 -0.527117 
-0.111368 -0.293134 -0.949563 
0.385794 0.153753 -0.909683 
2.8794e-20 0 -1 
0.300473 -0.0264756 -0.953423 
2.87957e-20 0 -1 
-0.13025 0.442289 -0.887364 
2.87906e-20 0 -1 
2.87955e-20 0 -1 
0.180866 0.268272 -0.946212 
0.807193 0.169257 -0.565501 
-0.548137 -0.133807 -0.825616 
2.87928e-20 0 -1 
2.8791e-20 0 -1 
0.862782 0.352469 -0.362454 
-0.201903 0.145439 -0.968547 
0.00262037 -0.032808 -0.999458 
-0.00108049 -0.924726 -0.380631 
-0.0892393 0.419911 -0.903167 
0.104367 0.0731728 -0.991843 
3.02179e-20 0 -1 
0.532795 0.0526059 -0.844608 
3.02217e-20 0 -1 
3.02105e-20 0 -1 
3.02214e-20 0 -1 
0.552609 -0.52783 -0.644995 
3.02154e-20 0 -1 
3.02115e-20 0 -1 
0.0598401 0.204093 -0.977121 
0.096893 0.0718284 -0.9927 
0.00653808 0.641514 -0.767084 
-0.103391 -0.906252 0.4099 
0.172412 -0.721009 -0.671134 
-0.0222017 0.987653 0.155074 
-0.477834 0.13623 -0.867822 
-0.431294 -0.547253 0.717287 
-0.12197 -0.983953 -0.130228 
0.0720488 0.043959 -0.996432 
3.17518e-20 0 -1 
0.751815 0.0898002 -0.65323 
3.17576e-20 0 -1 
3.17419e-20 0 -1 
3.17564e-20 0 -1 
0.751644 -0.128818 -0.646867 
3.17478e-20 0 -1 
3.1743e-20 0 -1 
0.269645 0.202398 -0.941449 
0.0556041 0.0654763 -0.996304 
-0.345135 -0.301377 -0.88885 
-0.0232527 0.488105 -0.872475 
0.0726285 0.101031 -0.992229 
3.32841e-20 0 -1 
-0.247845 0.0305874 -0.968317 
3.32902e-20 0 -1 
3.32739e-20 0 -1 