# vtk DataFile Version 2.0
Generated by NetDEM
ASCII 
DATASET POLYDATA
POINTS 142 double
-0.417013 -0.405375 -0.462833 
-0.403984 -0.399506 -0.388362 
-0.403333 -0.203333 -0.450016 
-0.403333 -0.203333 -0.350025 
-0.412072 -0.00760994 -0.464426 
-0.415608 -0.0103674 -0.391418 
-0.40295 0.19705 -0.450016 
-0.40295 0.19705 -0.350025 
-0.402763 0.397237 -0.450017 
-0.402763 0.397237 -0.350027 
-0.203538 -0.203538 -0.450016 
-0.203538 -0.203538 -0.350024 
-0.203218 -0.00321788 -0.450016 
-0.203218 -0.00321788 -0.350024 
-0.174681 0.191777 -0.461758 
-0.239829 0.179943 -0.400404 
-0.0241557 -0.410642 -0.451801 
-0.00619761 -0.397502 -0.36627 
-0.00366947 -0.203669 -0.450015 
-0.00366947 -0.203669 -0.350023 
-0.00360232 -0.00360232 -0.450016 
-0.00360232 -0.00360232 -0.350024 
-0.0384654 0.394723 -0.464686 
-0.00713344 0.381703 -0.376645 
0.189462 -0.398684 -0.46427 
0.188667 -0.398373 -0.391824 
0.17442 -0.212549 -0.464956 
0.194199 -0.210376 -0.392333 
0.172724 -0.00993204 -0.462568 
0.185675 -0.0150228 -0.383849 
0.158547 0.215531 -0.4636 
0.178185 0.183228 -0.376539 
0.196913 0.396913 -0.450016 
0.196913 0.396913 -0.350027 
0.396713 -0.403287 -0.450016 
0.396713 -0.403287 -0.350025 
0.39661 -0.20339 -0.450016 
0.39661 -0.20339 -0.350027 
0.396488 -0.00351175 -0.450016 
0.396488 -0.00351175 -0.350024 
0.396508 0.196508 -0.450013 
0.396508 0.196508 -0.350024 
-0.403984 -0.399506 -0.388362 
-0.40432 -0.404576 -0.316249 
-0.415608 -0.0103674 -0.391418 
-0.403539 -0.00486247 -0.311143 
-0.00619761 -0.397502 -0.36627 
0.00237487 -0.409299 -0.275582 
-0.00713344 0.381703 -0.376645 
0.0187468 0.387918 -0.294905 
0.188667 -0.398373 -0.391824 
0.176112 -0.398697 -0.318547 
0.194199 -0.210376 -0.392333 
0.186892 -0.199592 -0.303072 
0.185675 -0.0150228 -0.383849 
0.186061 -0.00441045 -0.309691 
0.178185 0.183228 -0.376539 
0.213205 0.17523 -0.29635 
-0.40432 -0.404576 -0.316249 
-0.411255 -0.403713 -0.23698 
-0.403539 -0.00486247 -0.311143 
-0.406711 0.00245242 -0.233281 
0.00237487 -0.409299 -0.275582 
0.00123061 -0.398318 -0.183078 
0.0187468 0.387918 -0.294905 
0.00223287 0.401974 -0.208597 
0.176112 -0.398697 -0.318547 
0.205535 -0.399133 -0.228453 
0.186892 -0.199592 -0.303072 
0.195788 -0.199801 -0.213142 
0.186061 -0.00441045 -0.309691 
0.19433 -0.00335799 -0.229145 
-0.411255 -0.403713 -0.23698 
-0.406504 -0.403887 -0.156528 
-0.406711 0.00245242 -0.233281 
-0.40407 -0.00482184 -0.147968 
0.00123061 -0.398318 -0.183078 
-0.00954582 -0.404157 -0.101482 
0.00223287 0.401974 -0.208597 
-0.00892655 0.397796 -0.123085 
0.205535 -0.399133 -0.228453 
0.195242 -0.404864 -0.15094 
0.195788 -0.199801 -0.213142 
0.193785 -0.208763 -0.124907 
0.19433 -0.00335799 -0.229145 
0.190185 -0.00237647 -0.157791 
0.205316 0.207191 -0.208172 
0.19148 0.197483 -0.120445 
0.19148 0.197483 -0.120445 
0.197172 0.197172 -0.0115267 
-0.256039 -0.435201 -0.460602 
-0.29417 -0.500001 -0.471905 
0.383157 0.427724 -0.450864 
0.390634 0.397502 -0.500001 
0.172724 -0.00993204 -0.462568 
0.209761 -0.0114952 -0.500018 
-0.412072 -0.00760994 -0.464426 
-0.395038 -0.00933831 -0.500012 
-0.0384654 0.394723 -0.464686 
-0.040789 0.40168 -0.500015 
0.0276451 0.162075 -0.451146 
0.0381189 0.166136 -0.500003 
-0.174681 0.191777 -0.461758 
-0.188158 0.197817 -0.500005 
0.39661 -0.20339 -0.450016 
0.39661 -0.20339 -0.5 
-0.417013 -0.405375 -0.462833 
-0.40443 -0.401158 -0.500019 
0.396508 0.196508 -0.450013 
0.396508 0.196508 -0.5 
0.189462 -0.398684 -0.46427 
0.206063 -0.401143 -0.500015 
0.158547 0.215531 -0.4636 
0.166676 0.230193 -0.50001 
0.17442 -0.212549 -0.464956 
0.171953 -0.194546 -0.500015 
-0.243425 0.369558 -0.463671 
-0.227055 0.368906 -0.500001 
-0.0241557 -0.410642 -0.451801 
0.000233586 -0.40363 -0.500035 
0.396488 -0.00351175 -0.450016 
0.396488 -0.00351175 -0.5 
-0.403333 -0.203333 -0.450016 
-0.403333 -0.203333 -0.5 
-0.40295 0.19705 -0.450016 
-0.40295 0.19705 -0.5 
-0.402763 0.397237 -0.450017 
-0.402763 0.397237 -0.5 
-0.203538 -0.203538 -0.450016 
-0.203538 -0.203538 -0.5 
-0.203218 -0.00321788 -0.450016 
-0.203218 -0.00321788 -0.5 
-0.00366947 -0.203669 -0.450015 
-0.00366947 -0.203669 -0.5 
-0.00360232 -0.00360232 -0.450016 
-0.00360232 -0.00360232 -0.5 
0.196913 0.396913 -0.450016 
0.196913 0.396913 -0.5 
0.396713 -0.403287 -0.450016 
0.396713 -0.403287 -0.5 
-0.256039 -0.435201 -0.460602 
-0.260578 -0.418869 -0.500003 
LINES 71 213
2 0 1
2 2 3
2 4 5
2 6 7
2 8 9
2 10 11
2 12 13
2 14 15
2 16 17
2 18 19
2 20 21
2 22 23
2 24 25
2 26 27
2 28 29
2 30 31
2 32 33
2 34 35
2 36 37
2 38 39
2 40 41
2 42 43
2 44 45
2 46 47
2 48 49
2 50 51
2 52 53
2 54 55
2 56 57
2 58 59
2 60 61
2 62 63
2 64 65
2 66 67
2 68 69
2 70 71
2 72 73
2 74 75
2 76 77
2 78 79
2 80 81
2 82 83
2 84 85
2 86 87
2 88 89
2 90 91
2 92 93
2 94 95
2 96 97
2 98 99
2 100 101
2 102 103
2 104 105
2 106 107
2 108 109
2 110 111
2 112 113
2 114 115
2 116 117
2 118 119
2 120 121
2 122 123
2 124 125
2 126 127
2 128 129
2 130 131
2 132 133
2 134 135
2 136 137
2 138 139
2 140 141
POINT_DATA 142
SCALARS id int 1
LOOKUP_TABLE default
0
25
1
26
2
27
3
28
4
29
6
31
7
32
8
33
10
35
11
36
12
37
14
39
15
40
16
41
17
42
18
43
19
44
20
45
21
46
22
47
23
48
25
50
27
52
35
60
39
64
40
65
41
66
42
67
43
68
50
75
52
77
60
85
64
89
65
90
66
91
67
92
75
100
77
102
85
110
89
114
90
115
91
116
92
117
93
118
118
143
5
2
24
4
17
4
2
4
14
4
13
4
8
4
21
4
0
4
23
4
15
4
18
4
16
4
9
4
10
4
22
4
1
4
3
4
4
4
6
4
7
4
11
4
12
4
19
4
20
4
5
4
CELL_DATA 71
VECTORS force double
-6.36022 1.19921 -63.7691 
0 0 -16.353 
3.7698 -1.07252 -32.2374 
0 0 -16.342 
0 0 -18.4317 
0 0 -15.3765 
0 0 -15.5796 
1.46789 1.19447 -6.88548 
8.79296 -1.86768 -104.091 
0 0 -14.6585 
0 0 -15.0826 
-14.0027 3.23156 -48.5499 
3.04124 -1.08019 -36.6221 
-2.09297 0.0757403 -61.2754 
9.30078 -1.52509 -46.6891 
-3.01317 8.29062 -23.2379 
0 0 -19.3457 
0 0 -15.7237 
0 0 -20.2214 
0 0 -15.5079 
0 0 -26.8647 
-1.31465 -6.89272 -64.0215 
0.439383 -0.590953 -24.4533 
1.32018 0.908062 -69.0528 
-8.19015 1.19876 -29.1304 
0.957103 -0.16349 -22.3559 
-2.18389 -4.59776 -45.0645 
2.29002 -3.3299 -36.1159 
-1.57292 4.88397 -9.81899 
4.04028 3.54081 -54.5928 
1.57749 -0.289617 -15.9532 
-0.637131 1.51146 -8.64357 
0.609218 0.406014 -10.4299 
1.20309 1.18067 -11.6922 
5.56893 7.6078 -32.3532 
3.40168 1.93312 -16.8009 
10.5035 0.991997 -32.4349 
1.52926 -0.153559 -3.33768 
-1.31175 0.17768 8.3105 
0.725268 -0.436807 1.83114 
0.0762949 0.566431 -6.06841 
-0.811464 2.08292 -15.5713 
1.06869 1.62617 -5.08603 
-1284.8 -791.628 -1599.68 
4.68194 -2.68536 121.403 
1.92978 4.71703 0.207459 
-0.294788 2.84174 7.05685 
-9.63149 1.49656 63.3305 
-5.37182 1.78455 43.4155 
17.1827 -6.96803 65.0698 
-1.23548 0.0288555 9.97307 
-0.281356 -1.87718 19.7997 
0 0 39.1128 
10.1399 -7.52169 77.3418 
0 0 42.4309 
-5.05478 1.26048 45.9052 
3.25696 -7.32165 40.1547 
-2.20252 -6.50548 66.392 
-3.10535 -0.198521 12.334 
-5.58182 -1.77356 139.604 
0 0 30.4826 
0 0 31.6474 
0 0 31.7059 
0 0 35.4097 
0 0 30.266 
0 0 30.5543 
0 0 29.1492 
0 0 29.7997 
0 0 37.462 
0 0 30.7914 
-0.0844445 -5.73467 12.6721 
VECTORS moment double
0 0 0 
0 0 0 
0 0 0 
0 0 0 
0 0 0 
0 0 0 
0 0 0 
0 0 0 
0 0 0 
0 0 0 
0 0 0 
0 0 0 
0 0 0 
0 0 0 
0 0 0 
0 0 0 
0 0 0 
0 0 0 
0 0 0 
0 0 0 
0 0 0 
0 0 0 
0 0 0 
0 0 0 
0 0 0 
0 0 0 
0 0 0 
0 0 0 
0 0 0 
0 0 0 
0 0 0 
0 0 0 
0 0 0 
0 0 0 
0 0 0 
0 0 0 
0 0 0 
0 0 0 
0 0 0 
0 0 0 
0 0 0 
0 0 0 
0 0 0 
0 0 0 
0 0 0 
0 0 0 
0 0 0 
0 0 0 
0 0 0 
0 0 0 
0 0 0 
0 0 0 
0 0 0 
0 0 0 
0 0 0 
0 0 0 
0 0 0 
0 0 0 
0 0 0 
0 0 0 
0 0 0 
0 0 0 
0 0 0 
0 0 0 
0 0 0 
0 0 0 
0 0 0 
0 0 0 
0 0 0 
0 0 0 
0 0 0 
SCALARS num_collisions int 1
LOOKUP_TABLE default
1 
1 
1 
1 
1 
1 
1 
1 
1 
1 
1 
1 
1 
1 
1 
1 
1 
1 
1 
1 
1 
1 
1 
1 
1 
1 
1 
1 
1 
1 
1 
1 
1 
1 
1 
1 
1 
1 
1 
1 
1 
1 
1 
1 
1 
1 
1 
1 
1 
1 
1 
1 
1 
1 
1 
1 
1 
1 
1 
1 
1 
1 
1 
1 
1 
1 
1 
1 
1 
1 
1 
VECTORS pos double
-0.390581 -0.407895 -0.423993 
-0.403333 -0.203333 -0.400021 
-0.402164 -0.00443447 -0.425261 
-0.40295 0.19705 -0.400021 
-0.402763 0.397237 -0.400022 
-0.203538 -0.203538 -0.40002 
-0.203218 -0.00321788 -0.40002 
-0.214712 0.193221 -0.441342 
0.0039858 -0.403153 -0.422569 
-0.00366947 -0.203669 -0.40002 
-0.00360232 -0.00360232 -0.40002 
-0.0181939 0.394554 -0.427119 
0.207689 -0.40734 -0.423295 
0.192713 -0.201904 -0.427069 
0.209046 -0.00971114 -0.425308 
0.181102 0.216821 -0.422322 
0.196913 0.396913 -0.400022 
0.396713 -0.403287 -0.40002 
0.39661 -0.20339 -0.400022 
0.396488 -0.00351175 -0.40002 
0.396508 0.196508 -0.400018 
-0.389173 -0.403522 -0.349104 
-0.402968 -0.00180377 -0.347421 
0.000958635 -0.403311 -0.328258 
0.0125228 0.397101 -0.328957 
0.198243 -0.402059 -0.347429 
0.199051 -0.186527 -0.34357 
0.197742 -0.00366228 -0.347789 
0.205941 0.183164 -0.335678 
-0.388079 -0.398366 -0.268501 
-0.394166 0.00219691 -0.266075 
0.0131745 -0.387254 -0.22982 
0.0348635 0.398905 -0.252939 
0.199781 -0.395996 -0.264739 
0.194374 -0.191219 -0.249742 
0.21487 0.00913211 -0.272691 
-0.397835 -0.415827 -0.19354 
-0.399993 -0.0157698 -0.186987 
0.0135748 -0.409901 -0.150941 
0.00640598 0.409712 -0.158752 
0.195758 -0.417513 -0.193121 
0.180037 -0.213514 -0.170543 
0.178446 -0.00626519 -0.193842 
0.208492 0.196033 -0.171934 
0.212807 0.208992 -0.0662739 
-0.29417 -0.500001 -0.471905 
0.390634 0.397502 -0.500001 
0.209761 -0.0114952 -0.500018 
-0.395038 -0.00933831 -0.500012 
-0.040789 0.40168 -0.500015 
0.0381189 0.166136 -0.500003 
-0.188158 0.197817 -0.500005 
0.39661 -0.20339 -0.5 
-0.40443 -0.401158 -0.500019 
0.396508 0.196508 -0.5 
0.206063 -0.401143 -0.500015 
0.166676 0.230193 -0.50001 
0.171953 -0.194546 -0.500015 
-0.227055 0.368906 -0.500001 
0.000233586 -0.40363 -0.500035 
0.396488 -0.00351175 -0.5 
-0.403333 -0.203333 -0.5 
-0.40295 0.19705 -0.5 
-0.402763 0.397237 -0.5 
-0.203538 -0.203538 -0.5 
-0.203218 -0.00321788 -0.5 
-0.00366947 -0.203669 -0.5 
-0.00360232 -0.00360232 -0.5 
0.196913 0.396913 -0.5 
0.396713 -0.403287 -0.5 
-0.260578 -0.418869 -0.500003 
VECTORS dir_n double
-0.0451993 -0.0047686 -0.998967 
6.11509e-17 0 -1 
0.204206 -0.0181525 -0.97876 
6.11919e-17 0 -1 
5.42543e-17 0 -1 
6.50342e-17 0 -1 
6.41866e-17 0 -1 
0.655918 0.40634 -0.636128 
-0.306167 0.0662257 -0.949671 
6.82198e-17 0 -1 
6.63014e-17 0 -1 
-0.0922486 0.274292 -0.957212 
0.213743 -0.0164063 -0.976752 
-0.249507 0.180365 -0.951428 
-0.156601 -0.0137087 -0.987567 
0.183908 0.027825 -0.98255 
5.16911e-17 0 -1 
6.35984e-17 0 -1 
4.94526e-17 0 -1 
6.44833e-17 0 -1 
3.72236e-17 0 -1 
0.187321 0.125513 -0.974247 
0.223401 -0.105671 -0.968982 
-0.515129 0.283035 -0.809032 
-0.0667981 0.0742272 -0.995002 
0.415046 0.100714 -0.904209 
-0.225896 0.249491 -0.941661 
-0.0803901 0.0180267 -0.9966 
-0.552828 0.0662386 -0.830659 
0.205666 0.181161 -0.961708 
0.324718 -0.0954295 -0.940984 
-0.439362 0.0398749 -0.897425 
-0.0723914 0.150823 -0.985907 
-0.429579 0.0170542 -0.902868 
-0.348828 0.399218 -0.847906 
-0.128847 -0.012911 -0.99158 
0.165493 0.191978 -0.967345 
0.260043 0.23834 -0.93572 
0.289322 -0.21527 0.932712 
0.106416 -0.505131 0.856457 
0.16466 0.107973 -0.980423 
-0.0782228 0.533306 -0.842298 
0.072103 0.0335621 -0.996832 
-0.264198 0.0655034 -0.962242 
0.136849 -0.0738941 0.987832 
2.54935e-16 1 4.90029e-17 
8.31277e-17 5.31371e-17 1 
6.97562e-17 3.00402e-17 1 
8.72656e-17 -3.15698e-17 1 
7.0526e-17 9.768e-17 1 
5.22951e-17 -1.90312e-17 1 
-5.6703e-17 -8.67304e-18 1 
2.5567e-17 0 1 
4.02014e-17 -9.53785e-17 1 
2.35677e-17 0 1 
-2.66384e-17 1.95287e-16 1 
-6.37067e-17 5.0866e-17 1 
2.73905e-17 5.78923e-17 1 
1.33858e-16 -1.35516e-16 1 
8.50733e-17 -1.12492e-16 1 
3.28056e-17 0 1 
3.15982e-17 0 1 
3.15399e-17 0 1 
2.82409e-17 0 1 
3.30404e-17 0 1 
3.27287e-17 0 1 
3.43062e-17 0 1 
3.35573e-17 0 1 
2.66937e-17 0 1 
3.24766e-17 0 1 
1.45092e-16 -7.67585e-17 1 
VECTORS dir_s double
-0.916695 0.397622 0.0395788 
1 0 0 
-0.966041 -0.165435 -0.198484 
1 0 0 
1 0 0 
1 0 0 
1 0 0 
-0.570771 -0.284488 -0.770251 
0.928377 -0.19998 -0.313248 
1 0 0 
1 0 0 
-0.678371 -0.721018 -0.141234 
-0.972448 -0.0988105 -0.211142 
0.729738 -0.610843 -0.307169 
0.98627 -0.0552354 -0.155629 
-0.678414 0.726935 -0.106395 
1 0 0 
1 0 0 
1 0 0 
1 0 0 
1 0 0 
-0.643516 -0.733658 -0.218248 
-0.901447 0.355764 -0.246628 
0.725359 -0.358893 -0.58741 
-0.985831 -0.158695 0.0543437 
-0.867496 -0.255729 -0.426678 
0.411357 -0.851805 -0.324365 
0.79025 -0.608209 -0.0747464 
0.604923 0.717482 -0.34538 
-0.720745 -0.636717 -0.274076 
-0.889916 0.30612 -0.338141 
0.848816 0.345456 -0.400215 
0.754098 -0.638674 -0.153074 
0.892121 0.162952 -0.421388 
0.865123 -0.210746 -0.455136 
0.924274 0.360754 -0.124798 
0.678398 -0.734097 -0.0296276 
0.53389 -0.842948 -0.0663387 
-0.831868 0.425533 0.356254 
0.687145 0.659932 0.303844 
-0.980532 -0.0898843 -0.174577 
0.0465765 -0.842009 -0.537449 
0.43034 0.900573 0.0614485 
-0.655185 -0.744335 0.129221 
-0.874017 0.460336 0.155517 
0.994271 -4.79286e-17 0.106888 
-0.103181 0.994663 -5.88977e-17 
-0.988142 0.15354 4.87138e-17 
-0.949004 0.315264 7.09096e-17 
0.9267 -0.375802 -1.44065e-17 
-0.999727 0.0233494 -4.75174e-17 
-0.148227 -0.988953 -2.44684e-17 
1 0 0 
0.803152 -0.595774 -7.87274e-17 
1 0 0 
-0.970288 0.241954 -9.42341e-17 
0.40644 -0.913677 8.24899e-17 
-0.320683 -0.947187 5.87883e-17 
-0.997963 -0.0637985 4.40282e-17 
-0.953048 -0.30282 4.01872e-17 
1 0 0 
1 0 0 
1 0 0 
1 0 0 
1 0 0 
1 0 0 
1 0 0 
1 0 0 
1 0 0 
1 0 0 
-0.0147237 -0.999892 -7.57758e-17 
