# vtk DataFile Version 2.0
Generated by NetDEM
ASCII 
DATASET POLYDATA
POINTS 370 double
-0.416904 -0.405413 -0.462844 
-0.403194 -0.399559 -0.388318 
-0.403333 -0.203333 -0.458352 
-0.403333 -0.203333 -0.366698 
-0.410578 -0.00746528 -0.463772 
-0.409414 -0.00925055 -0.389824 
-0.402763 0.397237 -0.458352 
-0.402763 0.397237 -0.366698 
-0.265599 -0.432511 -0.459546 
-0.304206 -0.407477 -0.386062 
-0.203538 -0.203538 -0.458352 
-0.203538 -0.203538 -0.366698 
-0.203218 -0.00321788 -0.458352 
-0.203218 -0.00321788 -0.366698 
-0.176695 0.208483 -0.45713 
-0.186294 0.200673 -0.377582 
-0.246803 0.369075 -0.465049 
-0.156496 0.414321 -0.444922 
-0.0382393 -0.396677 -0.455085 
-0.0506029 -0.387921 -0.380508 
-0.00366947 -0.203669 -0.458352 
-0.00366947 -0.203669 -0.366698 
-0.00360232 -0.00360232 -0.458352 
-0.00360232 -0.00360232 -0.366698 
0.0313129 0.18696 -0.452929 
-0.0349702 0.246195 -0.352298 
0.188806 -0.398553 -0.464548 
0.187345 -0.397421 -0.392015 
0.174144 -0.211701 -0.464564 
0.182322 -0.195365 -0.386259 
0.173588 -0.00947134 -0.462023 
0.187107 -0.0119269 -0.383796 
0.396713 -0.403289 -0.458311 
0.396716 -0.40389 -0.366561 
-0.403194 -0.399559 -0.388318 
-0.402529 -0.403506 -0.316081 
-0.403333 -0.203333 -0.366698 
-0.403333 -0.203333 -0.27504 
-0.409414 -0.00925055 -0.389824 
-0.387663 -0.00232811 -0.311294 
-0.431932 0.18453 -0.219142 
-0.449514 0.18198 -0.121082 
-0.402763 0.397237 -0.366698 
-0.402763 0.397237 -0.27504 
-0.304206 -0.407477 -0.386062 
-0.402529 -0.403506 -0.316081 
-0.304206 -0.407477 -0.386062 
-0.239721 -0.396275 -0.323065 
-0.203538 -0.203538 -0.366698 
-0.203538 -0.203538 -0.275039 
-0.203218 -0.00321788 -0.366698 
-0.203218 -0.00321788 -0.27504 
-0.156496 0.414321 -0.444922 
-0.205523 0.450047 -0.382806 
-0.0506029 -0.387921 -0.380508 
-0.145597 -0.410131 -0.369224 
-0.00366947 -0.203669 -0.366698 
-0.00366947 -0.203669 -0.27504 
-0.00360232 -0.00360232 -0.366698 
-0.00360232 -0.00360232 -0.27504 
0.00349721 0.254734 -0.442566 
0.0512264 0.345136 -0.441219 
0.00349721 0.254734 -0.442566 
-0.0349702 0.246195 -0.352298 
0.187345 -0.397421 -0.392015 
0.177076 -0.395717 -0.317202 
0.182322 -0.195365 -0.386259 
0.152643 -0.164455 -0.310096 
0.187107 -0.0119269 -0.383796 
0.189128 0.00486336 -0.309541 
0.198304 0.112176 -0.455705 
0.231251 0.178564 -0.39329 
0.396716 -0.40389 -0.366561 
0.396714 -0.403462 -0.274989 
0.396716 -0.40389 -0.366561 
0.397539 -0.309881 -0.336302 
-0.402529 -0.403506 -0.316081 
-0.414261 -0.407694 -0.242172 
-0.403333 -0.203333 -0.27504 
-0.403333 -0.203333 -0.183378 
-0.387663 -0.00232811 -0.311294 
-0.384025 0.00166727 -0.23477 
-0.402763 0.397237 -0.27504 
-0.402763 0.397237 -0.183378 
-0.182167 -0.362579 -0.453872 
-0.145597 -0.410131 -0.369224 
-0.203538 -0.203538 -0.275039 
-0.203538 -0.203538 -0.183378 
-0.203218 -0.00321788 -0.27504 
-0.203218 -0.00321788 -0.183378 
-0.186294 0.200673 -0.377582 
-0.109696 0.178733 -0.372005 
-0.186294 0.200673 -0.377582 
-0.178649 0.167879 -0.279589 
-0.205523 0.450047 -0.382806 
-0.237397 0.437094 -0.301887 
-0.00366947 -0.203669 -0.27504 
-0.00366947 -0.203669 -0.183378 
-0.00360232 -0.00360232 -0.27504 
-0.00360232 -0.00360232 -0.183378 
-0.0349702 0.246195 -0.352298 
-0.109696 0.178733 -0.372005 
0.177076 -0.395717 -0.317202 
0.204313 -0.396885 -0.229882 
0.177076 -0.395717 -0.317202 
0.0922044 -0.434697 -0.28177 
0.189128 0.00486336 -0.309541 
0.192712 0.00514268 -0.23633 
0.396714 -0.403462 -0.274989 
0.396712 -0.403275 -0.183363 
-0.414261 -0.407694 -0.242172 
-0.413141 -0.409915 -0.154858 
-0.403333 -0.203333 -0.183378 
-0.403333 -0.203333 -0.0917143 
-0.384025 0.00166727 -0.23477 
-0.388931 -0.00502919 -0.15385 
-0.402763 0.397237 -0.183378 
-0.402763 0.397237 -0.0917141 
-0.203538 -0.203538 -0.183378 
-0.203538 -0.203538 -0.0917138 
-0.203218 -0.00321788 -0.183378 
-0.203218 -0.00321788 -0.0917145 
0.0922044 -0.434697 -0.28177 
0.0432657 -0.388577 -0.230985 
-0.00366947 -0.203669 -0.183378 
-0.00366947 -0.203669 -0.0917143 
-0.00360232 -0.00360232 -0.183378 
-0.00360232 -0.00360232 -0.0917139 
-0.0122377 0.15916 -0.340044 
-0.0221447 0.21672 -0.264773 
0.204313 -0.396885 -0.229882 
0.200834 -0.401218 -0.15844 
0.192712 0.00514268 -0.23633 
0.186533 0.00205835 -0.163595 
0.231251 0.178564 -0.39329 
0.198078 0.217293 -0.310291 
0.396712 -0.403275 -0.183363 
0.396713 -0.403288 -0.0917109 
0.360031 0.320938 -0.237606 
0.418328 0.419575 -0.232844 
-0.413141 -0.409915 -0.154858 
-0.412714 -0.40474 -0.0788105 
-0.403333 -0.203333 -0.0917143 
-0.403333 -0.203333 -4.84085e-05 
-0.388931 -0.00502919 -0.15385 
-0.42514 -0.00511477 -0.0888265 
-0.402763 0.397237 -0.0917141 
-0.402763 0.397237 -4.82624e-05 
-0.239721 -0.396275 -0.323065 
-0.183822 -0.403422 -0.241666 
-0.203538 -0.203538 -0.0917138 
-0.203538 -0.203538 -4.78945e-05 
-0.203218 -0.00321788 -0.0917145 
-0.203218 -0.00321788 -4.86496e-05 
-0.178649 0.167879 -0.279589 
-0.185284 0.198993 -0.19419 
0.0432657 -0.388577 -0.230985 
-0.0245614 -0.384886 -0.172182 
-0.00366947 -0.203669 -0.0917143 
-0.00366947 -0.203669 -4.84693e-05 
-0.00360232 -0.00360232 -0.0917139 
-0.00360232 -0.00360232 -4.80345e-05 
-0.0221447 0.21672 -0.264773 
0.00675262 0.208575 -0.190308 
0.200834 -0.401218 -0.15844 
0.20938 -0.399253 -0.0792394 
0.186533 0.00205835 -0.163595 
0.183086 -0.001521 -0.0867665 
0.198078 0.217293 -0.310291 
0.196726 0.27701 -0.235612 
0.396713 -0.403288 -0.0917109 
0.396713 -0.403287 -4.79157e-05 
0.395938 0.46186 -0.312036 
0.418328 0.419575 -0.232844 
-0.412714 -0.40474 -0.0788105 
-0.410088 -0.40074 -0.00042547 
-0.403333 -0.203333 -4.84085e-05 
-0.403333 -0.203333 0.0916191 
-0.42514 -0.00511477 -0.0888265 
-0.422819 -0.00302248 0.00955669 
-0.402763 0.397237 -4.82624e-05 
-0.402763 0.397237 0.0916193 
-0.203538 -0.203538 -4.78945e-05 
-0.203538 -0.203538 0.0916196 
-0.203218 -0.00321788 -4.86496e-05 
-0.203218 -0.00321788 0.0916189 
-0.185284 0.198993 -0.19419 
-0.196818 0.220095 -0.104335 
-0.00366947 -0.203669 -4.84693e-05 
-0.00366947 -0.203669 0.0916191 
-0.00360232 -0.00360232 -4.80345e-05 
-0.00360232 -0.00360232 0.0916195 
0.00675262 0.208575 -0.190308 
0.0167094 0.185861 -0.121867 
0.20938 -0.399253 -0.0792394 
0.188179 -0.40996 -0.00959743 
0.183086 -0.001521 -0.0867665 
0.186881 -0.00336377 -0.0076543 
0.196726 0.27701 -0.235612 
0.202277 0.195583 -0.179443 
0.396713 -0.403287 -4.79157e-05 
0.396713 -0.403287 0.0916191 
-0.410088 -0.40074 -0.00042547 
-0.410067 -0.402024 0.0775555 
-0.403333 -0.203333 0.0916191 
-0.403333 -0.203333 0.183289 
-0.422819 -0.00302248 0.00955669 
-0.414165 0.000377674 0.0805753 
-0.402763 0.397237 0.0916193 
-0.402763 0.397237 0.183289 
-0.203538 -0.203538 0.0916196 
-0.203538 -0.203538 0.183289 
-0.203218 -0.00321788 0.0916189 
-0.203218 -0.00321788 0.183288 
-0.00366947 -0.203669 0.0916191 
-0.00366947 -0.203669 0.183289 
-0.00360232 -0.00360232 0.0916195 
-0.00360232 -0.00360232 0.183289 
0.0167094 0.185861 -0.121867 
-0.0202397 0.205516 -0.0388128 
0.188179 -0.40996 -0.00959743 
0.199054 -0.404918 0.0841962 
0.186881 -0.00336377 -0.0076543 
0.191972 -0.00755735 0.0686481 
0.202277 0.195583 -0.179443 
0.199362 0.182321 -0.0825554 
0.396713 -0.403287 0.0916191 
0.396713 -0.403287 0.183288 
-0.410067 -0.402024 0.0775555 
-0.412109 -0.404676 0.156509 
-0.403333 -0.203333 0.183289 
-0.403333 -0.203333 0.27496 
-0.414165 0.000377674 0.0805753 
-0.401812 -0.00247723 0.155199 
-0.402763 0.397237 0.183289 
-0.402763 0.397237 0.274961 
-0.203538 -0.203538 0.183289 
-0.203538 -0.203538 0.274961 
-0.203218 -0.00321788 0.183288 
-0.203218 -0.00321788 0.27496 
-0.00366947 -0.203669 0.183289 
-0.00366947 -0.203669 0.27496 
-0.00360232 -0.00360232 0.183289 
-0.00360232 -0.00360232 0.274961 
-0.0202397 0.205516 -0.0388128 
-0.00570343 0.203222 0.0555293 
0.199054 -0.404918 0.0841962 
0.192549 -0.405184 0.155038 
0.191972 -0.00755735 0.0686481 
0.193502 -0.00696142 0.14494 
0.199362 0.182321 -0.0825554 
0.189689 0.202301 0.00287679 
0.396713 -0.403287 0.183288 
0.396713 -0.403287 0.27496 
-0.412109 -0.404676 0.156509 
-0.40613 -0.406286 0.237415 
-0.403333 -0.203333 0.27496 
-0.403333 -0.203333 0.366636 
-0.401812 -0.00247723 0.155199 
-0.405803 -0.00289508 0.233136 
-0.402763 0.397237 0.274961 
-0.402763 0.397237 0.366636 
-0.203538 -0.203538 0.274961 
-0.203538 -0.203538 0.366636 
-0.203218 -0.00321788 0.27496 
-0.203218 -0.00321788 0.366635 
-0.00366947 -0.203669 0.27496 
-0.00366947 -0.203669 0.366635 
-0.00360232 -0.00360232 0.274961 
-0.00360232 -0.00360232 0.366636 
-0.00570343 0.203222 0.0555293 
0.00663699 0.193814 0.163537 
0.192549 -0.405184 0.155038 
0.199529 -0.399499 0.232898 
0.193502 -0.00696142 0.14494 
0.192798 -0.00436859 0.223719 
0.396713 -0.403287 0.27496 
0.396713 -0.403287 0.366635 
-0.403333 -0.203333 0.458315 
-0.403333 -0.203333 0.366636 
-0.402763 0.397237 0.458315 
-0.402763 0.397237 0.366636 
-0.203538 -0.203538 0.458315 
-0.203538 -0.203538 0.366636 
-0.203218 -0.00321788 0.458315 
-0.203218 -0.00321788 0.366635 
-0.00366947 -0.203669 0.458315 
-0.00366947 -0.203669 0.366635 
-0.00360232 -0.00360232 0.458315 
-0.00360232 -0.00360232 0.366636 
0.396713 -0.403287 0.458315 
0.396713 -0.403287 0.366635 
0.398867 0.397154 0.140155 
0.396538 0.396509 0.248219 
0.450007 0.217851 -0.264722 
0.5 0.217854 -0.264667 
0.395938 0.46186 -0.312036 
0.388527 0.500002 -0.335747 
-0.205523 0.450047 -0.382806 
-0.185553 0.500002 -0.388483 
-0.203538 -0.203538 -0.458352 
-0.203538 -0.203538 -0.5 
0.173588 -0.00947134 -0.462023 
0.205663 -0.00251292 -0.500056 
-0.410578 -0.00746528 -0.463772 
-0.395041 -0.00932006 -0.500021 
0.401107 0.357584 -0.449797 
0.392051 0.351503 -0.500003 
-0.182167 -0.362579 -0.453872 
-0.191544 -0.364153 -0.500014 
-0.0408437 0.396019 -0.464322 
-0.053886 0.404062 -0.500003 
-0.416904 -0.405413 -0.462844 
-0.39208 -0.405148 -0.500033 
0.00349721 0.254734 -0.442566 
-0.0283959 0.214755 -0.500031 
0.188806 -0.398553 -0.464548 
0.194246 -0.395582 -0.500055 
0.174144 -0.211701 -0.464564 
0.171906 -0.194432 -0.50001 
-0.246803 0.369075 -0.465049 
-0.237013 0.368456 -0.500003 
-0.265599 -0.432511 -0.459546 
-0.260739 -0.419204 -0.500018 
-0.00360232 -0.00360232 -0.458352 
-0.00360232 -0.00360232 -0.5 
0.285759 0.0658484 -0.440797 
0.295677 0.0525186 -0.500003 
-0.403333 -0.203333 -0.458352 
-0.403333 -0.203333 -0.5 
-0.301666 0.160801 -0.465044 
-0.310629 0.160214 -0.500003 
-0.00366947 -0.203669 -0.458352 
-0.00366947 -0.203669 -0.5 
0.0512264 0.345136 -0.441219 
0.0554519 0.347503 -0.500013 
-0.203218 -0.00321788 -0.458352 
-0.203218 -0.00321788 -0.5 
0.396713 -0.403289 -0.458311 
0.396713 -0.403286 -0.5 
-0.176695 0.208483 -0.45713 
-0.195445 0.214355 -0.500026 
-0.0382393 -0.396677 -0.455085 
-0.0191348 -0.387077 -0.500004 
0.371173 0.439893 -0.464369 
0.388101 0.441837 -0.500003 
-0.156496 0.414321 -0.444922 
-0.136867 0.40648 -0.500007 
0.0313129 0.18696 -0.452929 
0.0262083 0.186943 -0.500037 
0.15911 0.210261 -0.464874 
0.112045 0.212867 -0.500002 
0.198304 0.112176 -0.455705 
0.208854 0.144649 -0.50001 
-0.402763 0.397237 -0.458352 
-0.402763 0.397237 -0.5 
-0.00366947 -0.203669 0.458315 
-0.00366947 -0.203669 0.5 
-0.203538 -0.203538 0.458315 
-0.203538 -0.203538 0.5 
-0.203218 -0.00321788 0.458315 
-0.203218 -0.00321788 0.5 
-0.403333 -0.203333 0.458315 
-0.403333 -0.203333 0.5 
-0.00360232 -0.00360232 0.458315 
-0.00360232 -0.00360232 0.5 
-0.402763 0.397237 0.458315 
-0.402763 0.397237 0.5 
0.396713 -0.403287 0.458315 
0.396713 -0.403287 0.5 
LINES 185 555
2 0 1
2 2 3
2 4 5
2 6 7
2 8 9
2 10 11
2 12 13
2 14 15
2 16 17
2 18 19
2 20 21
2 22 23
2 24 25
2 26 27
2 28 29
2 30 31
2 32 33
2 34 35
2 36 37
2 38 39
2 40 41
2 42 43
2 44 45
2 46 47
2 48 49
2 50 51
2 52 53
2 54 55
2 56 57
2 58 59
2 60 61
2 62 63
2 64 65
2 66 67
2 68 69
2 70 71
2 72 73
2 74 75
2 76 77
2 78 79
2 80 81
2 82 83
2 84 85
2 86 87
2 88 89
2 90 91
2 92 93
2 94 95
2 96 97
2 98 99
2 100 101
2 102 103
2 104 105
2 106 107
2 108 109
2 110 111
2 112 113
2 114 115
2 116 117
2 118 119
2 120 121
2 122 123
2 124 125
2 126 127
2 128 129
2 130 131
2 132 133
2 134 135
2 136 137
2 138 139
2 140 141
2 142 143
2 144 145
2 146 147
2 148 149
2 150 151
2 152 153
2 154 155
2 156 157
2 158 159
2 160 161
2 162 163
2 164 165
2 166 167
2 168 169
2 170 171
2 172 173
2 174 175
2 176 177
2 178 179
2 180 181
2 182 183
2 184 185
2 186 187
2 188 189
2 190 191
2 192 193
2 194 195
2 196 197
2 198 199
2 200 201
2 202 203
2 204 205
2 206 207
2 208 209
2 210 211
2 212 213
2 214 215
2 216 217
2 218 219
2 220 221
2 222 223
2 224 225
2 226 227
2 228 229
2 230 231
2 232 233
2 234 235
2 236 237
2 238 239
2 240 241
2 242 243
2 244 245
2 246 247
2 248 249
2 250 251
2 252 253
2 254 255
2 256 257
2 258 259
2 260 261
2 262 263
2 264 265
2 266 267
2 268 269
2 270 271
2 272 273
2 274 275
2 276 277
2 278 279
2 280 281
2 282 283
2 284 285
2 286 287
2 288 289
2 290 291
2 292 293
2 294 295
2 296 297
2 298 299
2 300 301
2 302 303
2 304 305
2 306 307
2 308 309
2 310 311
2 312 313
2 314 315
2 316 317
2 318 319
2 320 321
2 322 323
2 324 325
2 326 327
2 328 329
2 330 331
2 332 333
2 334 335
2 336 337
2 338 339
2 340 341
2 342 343
2 344 345
2 346 347
2 348 349
2 350 351
2 352 353
2 354 355
2 356 357
2 358 359
2 360 361
2 362 363
2 364 365
2 366 367
2 368 369
POINT_DATA 370
SCALARS id int 1
LOOKUP_TABLE default
0
25
1
26
2
27
4
29
5
30
6
31
7
32
8
58
9
34
10
35
11
36
12
37
13
63
15
40
16
41
17
42
20
45
25
50
26
51
27
52
28
103
29
54
30
50
30
105
31
56
32
57
34
59
35
80
36
61
37
62
38
39
38
63
40
65
41
66
42
67
43
93
45
70
45
46
50
75
51
76
52
77
54
79
55
80
56
81
57
82
58
83
58
108
59
84
61
86
62
87
63
83
65
90
65
85
67
92
70
95
75
100
76
101
77
102
79
104
81
106
82
107
85
110
86
111
87
112
88
113
90
115
92
117
93
118
95
120
98
149
100
125
101
126
102
127
104
129
105
130
106
131
107
132
108
133
110
135
111
136
112
137
113
138
115
140
117
142
118
143
120
145
124
149
125
150
126
151
127
152
129
154
131
156
132
157
133
158
136
161
137
162
138
163
140
165
142
167
143
168
145
170
150
175
151
176
152
177
154
179
156
181
157
182
161
186
162
187
163
188
165
190
167
192
168
193
170
195
175
200
176
201
177
202
179
204
181
206
182
207
186
211
187
212
188
213
190
215
192
217
193
218
195
220
200
225
201
251
202
227
204
254
206
256
207
257
211
261
212
262
213
238
215
240
217
242
220
270
226
251
229
254
231
256
232
257
236
261
237
262
245
270
249
274
73
1
124
3
59
3
6
4
17
4
2
4
49
4
55
4
14
4
0
4
38
4
15
4
16
4
9
4
5
4
12
4
68
4
1
4
33
4
11
4
39
4
7
4
20
4
8
4
10
4
24
4
34
4
13
4
18
4
43
4
4
4
236
5
231
5
232
5
226
5
237
5
229
5
245
5
CELL_DATA 185
VECTORS force double
8.63152 -2.49692 -107.656 
0 0 -16695.3 
-2.01018 -0.0186255 -65.3947 
0 0 -16695.2 
-2.43725 0.466578 -20.9964 
0 0 -16695 
0 0 -16695.5 
110.538 79.7564 -110.638 
-7.88594 -7.35226 -13.3689 
4.78289 1.5306 -8.90185 
0 0 -16695.4 
0 0 -16695.1 
5040.33 -2357.98 4461.89 
-8.94392 8.59585 -213.361 
-1.12367 2.71553 -5.60529 
4.6765 8.21953 14.1426 
-0.127132 -349.172 -16270.3 
-2.31638 -15.1371 -116.732 
0 0 -16686 
1.10966 -2.65922 -53.1578 
-29.4305 25.3905 -1119.08 
0 0 -16685.9 
2.96858 -2.1805 7.13525 
-23.3949 -3.67307 -16.5259 
0 0 -16685.8 
0 0 -16686.2 
1.06963 -14.8732 -25.4768 
2.58733 -0.205822 -0.648317 
0 0 -16686.1 
0 0 -16685.8 
43.7615 135.513 129.814 
3402.1 -1879.47 2828 
41.7431 13.64 -201.687 
-0.438999 0.440238 4.86671 
14.1494 8.73231 -299.817 
0.411099 -0.113133 -9.51067 
2.30777 1477.22 -17044.7 
-16.5827 -3332.41 -174.296 
2.81099 4.28914 -64.7824 
0 0 -16678.8 
1.05307 -2.10134 -41.1901 
0 0 -16678.7 
2.68472 -4.08596 12.6952 
0 0 -16678.6 
0 0 -16678.9 
-1440.95 -210.53 -28.8261 
-76.7434 -52.3106 21.5463 
0.684296 -0.528618 -10.5885 
0 0 -16678.8 
0 0 -16678.7 
-2658.06 1862.91 -421.708 
3.51549 2.78859 -165.348 
95.2679 -13.3854 -75.8218 
4.32548 2.3386 -120.533 
0.772628 -345.002 -16767.7 
2.10178 0.764421 -71.384 
0 0 -16673.2 
4.21478 1.78279 -30.2704 
0 0 -16673.2 
0 0 -16673.1 
0 0 -16673.3 
116.261 -40.3666 -142.793 
0 0 -16673.2 
0 0 -16673.1 
25.3322 -96.2881 -320.64 
6.36519 2.26372 -144.086 
8.10779 3.10032 -114.274 
-0.900703 -0.120629 -1.38458 
-0.0766067 30.0591 -16743.8 
32.6985 -78.0877 96.733 
2.62943 -3.87466 -61.2873 
0 0 -16668.7 
4.01781 -1.4236 -30.9106 
0 0 -16668.7 
12.5965 -5.09513 23.7402 
0 0 -16668.6 
0 0 -16668.7 
40.4235 18.8279 -21.0078 
83.2434 -31.0583 -72.7957 
0 0 -16668.7 
0 0 -16668.7 
22.8538 -77.4175 -201.482 
8.03183 -3.54557 -119.876 
4.19053 3.33484 -77.5052 
2.62226 0.9753 -2.64658 
0.00548645 -0.775073 -16680.8 
39.4948 268.814 -172.744 
1.41851 -4.37559 -49.6866 
0 0 -16664.5 
5.83792 -6.14202 -33.4189 
0 0 -16664.5 
0 0 -16664.6 
0 0 -16664.5 
-0.836843 -1.59477 0.802358 
0 0 -16664.5 
0 0 -16664.6 
6.11908 -21.3478 -94.0142 
-0.278087 5.06875 -93.2457 
4.78305 2.49739 -51.0821 
0.872296 -0.141892 -1.19766 
-0.000186924 0.0235068 -16672.1 
2.87417 -0.0717132 -35.0529 
0 0 -16660 
-0.884277 -4.83513 -52.6386 
0 0 -16660.1 
0 0 -16660.2 
0 0 -16660 
0 0 -16660 
0 0 -16660.1 
-8.34841 8.92257 -92.683 
1.56642 1.69195 -65.0534 
4.80632 2.98725 -36.6639 
-0.314089 -0.243493 2.72449 
0 0 -16660 
4.40075 2.41941 -21.6915 
0 0 -16654.5 
-6.1699 4.26999 -36.2645 
0 0 -16654.6 
0 0 -16654.7 
0 0 -16654.4 
0 0 -16654.5 
0 0 -16654.6 
5.52228 18.4336 -86.1733 
2.95238 -1.90776 -41.0354 
3.69865 3.39035 -19.7241 
-0.118027 0.0643653 1.25162 
0 0 -16654.5 
5.57326 1.09178 -29.19 
0 0 -16647.3 
-1.92813 1.78782 -14.2894 
0 0 -16647.4 
0 0 -16647.6 
0 0 -16647.2 
0 0 -16647.3 
0 0 -16647.5 
-17.1143 -13.164 -102.538 
8.87033 10.8763 -39.384 
3.25314 0.961731 -6.41981 
0 0 -16647.3 
0 0 16638.1 
0 0 16638.2 
0 0 16638.4 
0 0 16637.9 
0 0 16638 
0 0 16638.3 
0 0 16638 
-2.16084 -2.86609 202.458 
29.3644 2.34328 11.3166 
36.5295 -22.3856 106.27 
1.94131 -9.56104 -2.34255 
0 0 16706.5 
65.5441 28.1612 364.595 
2.18775 -0.931791 78.8881 
1.30847 0.987339 11.98 
0.08737 3.6792 4.00309 
3.29699 -1.46298 11.993 
-1.74026 -2.31467 125.554 
-80.8493 -525.633 1799.03 
17.1943 -4.49234 224.765 
0.310812 -1.97922 19.2038 
6.98843 5.23823 25.5001 
-6.55557 -1.63128 48.6297 
0 0 16706.6 
-2.45024 2.15254 12.5412 
0 0 16706.9 
-1.00617 -1.16831 13.6139 
0 0 16706.9 
-26.0424 -44.5343 43.2629 
0 0 16707 
1.20991 -50.6627 16558.3 
10.0805 -13.9695 67.366 
-3.60859 -1.78617 21.3287 
-3.03543 -0.506131 12.1227 
-16.0286 6.26467 26.841 
-1306.28 720.154 2027.74 
4.19909 -0.266487 6.53283 
-0.426227 3.46322 18.075 
0 0 16706.7 
0 0 -16626.5 
0 0 -16626.9 
0 0 -16626.4 
0 0 -16626.6 
0 0 -16626.8 
0 0 -16626.7 
0 0 -16626.5 
VECTORS moment double
0 0 0 
0 0 0 
0 0 0 
0 0 0 
0 0 0 
0 0 0 
0 0 0 
0 0 0 
0 0 0 
0 0 0 
0 0 0 
0 0 0 
0 0 0 
0 0 0 
0 0 0 
0 0 0 
0 0 0 
0 0 0 
0 0 0 
0 0 0 
0 0 0 
0 0 0 
0 0 0 
0 0 0 
0 0 0 
0 0 0 
0 0 0 
0 0 0 
0 0 0 
0 0 0 
0 0 0 
0 0 0 
0 0 0 
0 0 0 
0 0 0 
0 0 0 
0 0 0 
0 0 0 
0 0 0 
0 0 0 
0 0 0 
0 0 0 
0 0 0 
0 0 0 
0 0 0 
0 0 0 
0 0 0 
0 0 0 
0 0 0 
0 0 0 
0 0 0 
0 0 0 
0 0 0 
0 0 0 
0 0 0 
0 0 0 
0 0 0 
0 0 0 
0 0 0 
0 0 0 
0 0 0 
0 0 0 
0 0 0 
0 0 0 
0 0 0 
0 0 0 
0 0 0 
0 0 0 
0 0 0 
0 0 0 
0 0 0 
0 0 0 
0 0 0 
0 0 0 
0 0 0 
0 0 0 
0 0 0 
0 0 0 
0 0 0 
0 0 0 
0 0 0 
0 0 0 
0 0 0 
0 0 0 
0 0 0 
0 0 0 
0 0 0 
0 0 0 
0 0 0 
0 0 0 
0 0 0 
0 0 0 
0 0 0 
0 0 0 
0 0 0 
0 0 0 
0 0 0 
0 0 0 
0 0 0 
0 0 0 
0 0 0 
0 0 0 
0 0 0 
0 0 0 
0 0 0 
0 0 0 
0 0 0 
0 0 0 
0 0 0 
0 0 0 
0 0 0 
0 0 0 
0 0 0 
0 0 0 
0 0 0 
0 0 0 
0 0 0 
0 0 0 
0 0 0 
0 0 0 
0 0 0 
0 0 0 
0 0 0 
0 0 0 
0 0 0 
0 0 0 
0 0 0 
0 0 0 
0 0 0 
0 0 0 
0 0 0 
0 0 0 
0 0 0 
0 0 0 
0 0 0 
0 0 0 
0 0 0 
0 0 0 
0 0 0 
0 0 0 
0 0 0 
0 0 0 
0 0 0 
0 0 0 
0 0 0 
0 0 0 
0 0 0 
0 0 0 
0 0 0 
0 0 0 
0 0 0 
0 0 0 
0 0 0 
0 0 0 
0 0 0 
0 0 0 
0 0 0 
0 0 0 
0 0 0 
0 0 0 
0 0 0 
0 0 0 
0 0 0 
0 0 0 
0 0 0 
0 0 0 
0 0 0 
0 0 0 
0 0 0 
0 0 0 
0 0 0 
0 0 0 
0 0 0 
0 0 0 
0 0 0 
0 0 0 
0 0 0 
0 0 0 
0 0 0 
0 0 0 
0 0 0 
0 0 0 
0 0 0 
0 0 0 
0 0 0 
SCALARS num_collisions int 1
LOOKUP_TABLE default
1 
1 
1 
1 
1 
1 
1 
1 
1 
1 
1 
1 
1 
1 
1 
1 
1 
1 
1 
1 
1 
1 
1 
1 
1 
1 
1 
1 
1 
1 
1 
1 
1 
1 
1 
1 
1 
1 
1 
1 
1 
1 
1 
1 
1 
1 
1 
1 
1 
1 
1 
1 
1 
1 
1 
1 
1 
1 
1 
1 
1 
1 
1 
1 
1 
1 
1 
1 
1 
1 
1 
1 
1 
1 
1 
1 
1 
1 
1 
1 
1 
1 
1 
1 
1 
1 
1 
1 
1 
1 
1 
1 
1 
1 
1 
1 
1 
1 
1 
1 
1 
1 
1 
1 
1 
1 
1 
1 
1 
1 
1 
1 
1 
1 
1 
1 
1 
1 
1 
1 
1 
1 
1 
1 
1 
1 
1 
1 
1 
1 
1 
1 
1 
1 
1 
1 
1 
1 
1 
1 
1 
1 
1 
1 
1 
1 
1 
1 
1 
1 
1 
1 
1 
1 
1 
1 
1 
1 
1 
1 
1 
1 
1 
1 
1 
1 
1 
1 
1 
1 
1 
1 
1 
1 
1 
1 
1 
1 
1 
1 
1 
1 
1 
1 
1 
VECTORS pos double
-0.392057 -0.401305 -0.424013 
-0.403333 -0.203333 -0.412525 
-0.388703 -0.012502 -0.423284 
-0.402763 0.397237 -0.412525 
-0.270405 -0.407655 -0.42181 
-0.203538 -0.203538 -0.412524 
-0.203218 -0.00321788 -0.412525 
-0.181931 0.202417 -0.42021 
-0.200937 0.394413 -0.455318 
-0.027962 -0.390829 -0.419242 
-0.00366947 -0.203669 -0.412525 
-0.00360232 -0.00360232 -0.412524 
-0.00846061 0.192926 -0.399672 
0.200436 -0.397428 -0.424915 
0.172511 -0.182928 -0.423085 
0.210465 0.00080752 -0.425794 
0.396715 -0.403527 -0.412441 
-0.387654 -0.40573 -0.349501 
-0.403333 -0.203333 -0.320868 
-0.38352 -0.0141755 -0.344964 
-0.4407 0.183265 -0.170137 
-0.402763 0.397237 -0.320868 
-0.34974 -0.416693 -0.335817 
-0.293058 -0.403238 -0.340424 
-0.203538 -0.203538 -0.320868 
-0.203218 -0.00321788 -0.320869 
-0.188981 0.42559 -0.411894 
-0.0918772 -0.423922 -0.378116 
-0.00366947 -0.203669 -0.320868 
-0.00360232 -0.00360232 -0.320868 
0.0417091 0.301315 -0.441016 
-0.0108803 0.229721 -0.397904 
0.199161 -0.401815 -0.346718 
0.176936 -0.170837 -0.348726 
0.207008 0.00810817 -0.34922 
0.205715 0.160795 -0.427921 
0.396715 -0.403591 -0.320781 
0.397126 -0.356726 -0.351505 
-0.391207 -0.406567 -0.271026 
-0.403333 -0.203333 -0.229208 
-0.378942 -0.00852919 -0.270286 
-0.402763 0.397237 -0.229208 
-0.175426 -0.384004 -0.40251 
-0.203538 -0.203538 -0.229208 
-0.203218 -0.00321788 -0.229209 
-0.138975 0.221481 -0.358653 
-0.17567 0.187695 -0.329364 
-0.227037 0.433574 -0.355009 
-0.00366947 -0.203669 -0.229208 
-0.00360232 -0.00360232 -0.229208 
-0.0776989 0.216041 -0.367367 
0.207983 -0.397624 -0.267014 
0.13247 -0.414043 -0.322781 
0.205874 0.00842474 -0.273572 
0.396713 -0.403347 -0.229182 
-0.394068 -0.406851 -0.189618 
-0.403333 -0.203333 -0.137546 
-0.379759 -0.0106807 -0.189567 
-0.402763 0.397237 -0.137545 
-0.203538 -0.203538 -0.137545 
-0.203218 -0.00321788 -0.137546 
0.0604033 -0.409565 -0.253718 
-0.00366947 -0.203669 -0.137546 
-0.00360232 -0.00360232 -0.137545 
-0.0101327 0.171445 -0.293356 
0.210314 -0.399765 -0.193382 
0.204107 0.00908883 -0.198808 
0.211959 0.208136 -0.365023 
0.396713 -0.403284 -0.137539 
0.37 0.367839 -0.251477 
-0.394217 -0.40642 -0.112462 
-0.403333 -0.203333 -0.0458806 
-0.395046 -0.0226401 -0.11064 
-0.402763 0.397237 -0.0458804 
-0.212614 -0.401444 -0.281933 
-0.203538 -0.203538 -0.0458801 
-0.203218 -0.00321788 -0.0458808 
-0.179412 0.189076 -0.228552 
0.0220931 -0.39339 -0.200318 
-0.00366947 -0.203669 -0.0458806 
-0.00360232 -0.00360232 -0.0458802 
0.00411935 0.19696 -0.226848 
0.20138 -0.400044 -0.118692 
0.205765 0.00895054 -0.122064 
0.197517 0.242602 -0.273722 
0.396713 -0.403288 -0.0458794 
0.403916 0.429687 -0.267404 
-0.392015 -0.400342 -0.0341615 
-0.403333 -0.203333 0.0457861 
-0.409316 -0.00836805 -0.0315394 
-0.402763 0.397237 0.0457863 
-0.203538 -0.203538 0.0457866 
-0.203218 -0.00321788 0.0457859 
-0.197099 0.219257 -0.161082 
-0.00366947 -0.203669 0.0457861 
-0.00360232 -0.00360232 0.0457865 
-0.0232705 0.22118 -0.146894 
0.207786 -0.407819 -0.0392063 
0.213917 0.00695074 -0.046634 
0.201107 0.229201 -0.220638 
0.396713 -0.403287 0.0457862 
-0.389266 -0.394408 0.0451056 
-0.403333 -0.203333 0.137455 
-0.420809 0.00570448 0.0463487 
-0.402763 0.397237 0.137455 
-0.203538 -0.203538 0.137455 
-0.203218 -0.00321788 0.137454 
-0.00366947 -0.203669 0.137455 
-0.00360232 -0.00360232 0.137455 
0.00463831 0.216525 -0.0877839 
0.204842 -0.407826 0.0475027 
0.21244 0.00649646 0.0297829 
0.219179 0.187912 -0.127338 
0.396713 -0.403287 0.137454 
-0.39142 -0.396861 0.123521 
-0.403333 -0.203333 0.229125 
-0.408634 0.00686173 0.119364 
-0.402763 0.397237 0.229125 
-0.203538 -0.203538 0.229125 
-0.203218 -0.00321788 0.229125 
-0.00366947 -0.203669 0.229125 
-0.00360232 -0.00360232 0.229125 
-0.0105809 0.202048 0.00942004 
0.201248 -0.398407 0.120674 
0.21773 0.00452987 0.105664 
0.20988 0.183766 -0.0476124 
0.396713 -0.403287 0.229125 
-0.386786 -0.397429 0.202888 
-0.403333 -0.203333 0.320798 
-0.389163 0.00469156 0.201719 
-0.402763 0.397237 0.320798 
-0.203538 -0.203538 0.320799 
-0.203218 -0.00321788 0.320798 
-0.00366947 -0.203669 0.320798 
-0.00360232 -0.00360232 0.320799 
0.00458239 0.187366 0.105809 
0.213993 -0.394542 0.199461 
0.221285 -0.00461979 0.182858 
0.396713 -0.403287 0.320798 
-0.403333 -0.203333 0.412476 
-0.402763 0.397237 0.412476 
-0.203538 -0.203538 0.412476 
-0.203218 -0.00321788 0.412475 
-0.00366947 -0.203669 0.412476 
-0.00360232 -0.00360232 0.412476 
0.396713 -0.403287 0.412476 
0.390314 0.397414 0.190466 
0.5 0.217854 -0.264667 
0.388527 0.500002 -0.335747 
-0.185553 0.500002 -0.388483 
-0.203538 -0.203538 -0.5 
0.205663 -0.00251292 -0.500056 
-0.395041 -0.00932006 -0.500021 
0.392051 0.351503 -0.500003 
-0.191544 -0.364153 -0.500014 
-0.053886 0.404062 -0.500003 
-0.39208 -0.405148 -0.500033 
-0.0283959 0.214755 -0.500031 
0.194246 -0.395582 -0.500055 
0.171906 -0.194432 -0.50001 
-0.237013 0.368456 -0.500003 
-0.260739 -0.419204 -0.500018 
-0.00360232 -0.00360232 -0.5 
0.295677 0.0525186 -0.500003 
-0.403333 -0.203333 -0.5 
-0.310629 0.160214 -0.500003 
-0.00366947 -0.203669 -0.5 
0.0554519 0.347503 -0.500013 
-0.203218 -0.00321788 -0.5 
0.396713 -0.403286 -0.5 
-0.195445 0.214355 -0.500026 
-0.0191348 -0.387077 -0.500004 
0.388101 0.441837 -0.500003 
-0.136867 0.40648 -0.500007 
0.0262083 0.186943 -0.500037 
0.112045 0.212867 -0.500002 
0.208854 0.144649 -0.50001 
-0.402763 0.397237 -0.5 
-0.00366947 -0.203669 0.5 
-0.203538 -0.203538 0.5 
-0.203218 -0.00321788 0.5 
-0.403333 -0.203333 0.5 
-0.00360232 -0.00360232 0.5 
-0.402763 0.397237 0.5 
0.396713 -0.403287 0.5 
VECTORS dir_n double
-0.056643 -0.00572674 -0.998378 
5.9897e-20 0 -1 
0.140906 -0.0372489 -0.989322 
5.98974e-20 0 -1 
0.521523 -0.156665 -0.838731 
5.98981e-20 0 -1 
5.98964e-20 0 -1 
0.393039 -0.0583586 -0.917668 
-0.748276 -0.567963 -0.342784 
-0.00213151 -0.234807 -0.97204 
5.98968e-20 0 -1 
5.98978e-20 0 -1 
0.310325 -0.691779 -0.652028 
0.213117 -0.0377916 -0.976296 
-0.0550532 -0.0215065 -0.998252 
0.159922 0.0370958 0.986432 
-2.90917e-05 0.00525863 -0.999986 
0.178761 0.133748 -0.974759 
5.99303e-20 0 -1 
0.073422 -0.105655 -0.991689 
0.177376 0.0257207 -0.983807 
5.99308e-20 0 -1 
0.830358 -0.441237 -0.340316 
-0.597145 0.0415002 -0.801059 
5.99314e-20 0 -1 
5.99299e-20 0 -1 
0.539066 -0.592872 -0.598256 
0.962221 0.237413 -0.133289 
5.99302e-20 0 -1 
5.99311e-20 0 -1 
0.6294 0.744583 0.222378 
-0.301836 -0.254244 0.918834 
0.350312 0.056717 -0.934914 
-0.108836 -0.0264898 0.993707 
-0.105459 -0.0808311 -0.991133 
0.0110994 -0.458893 -0.888422 
2.83046e-05 -0.00387396 -0.999992 
-0.00829762 -0.952356 -0.304875 
0.355281 0.137298 -0.924621 
5.99563e-20 0 -1 
0.328739 0.0250116 -0.94409 
5.99567e-20 0 -1 
0.188576 -0.2607 0.946823 
5.99571e-20 0 -1 
5.9956e-20 0 -1 
-0.989558 0.144042 -0.00515467 
-0.131204 -0.238454 0.96225 
0.738718 0.21813 -0.637742 
5.99562e-20 0 -1 
5.99569e-20 0 -1 
-0.669397 -0.738836 -0.0776415 
-0.209884 0.148123 -0.966441 
0.861698 0.258966 -0.436363 
0.000211848 -0.0318961 -0.999491 
8.82966e-06 -0.00145467 -0.999999 
0.0614642 0.0526832 -0.996718 
5.99764e-20 0 -1 
0.503302 0.0741885 -0.86092 
5.99766e-20 0 -1 
5.99769e-20 0 -1 
5.99762e-20 0 -1 
0.485922 -0.46152 -0.742213 
5.99763e-20 0 -1 
5.99768e-20 0 -1 
-0.0727893 -0.53369 -0.842542 
0.04922 0.203521 -0.977833 
0.0954111 0.0704115 -0.992945 
0.348935 -0.272574 -0.896632 
-7.40015e-07 8.02056e-05 -1 
-0.198931 -0.939047 0.280387 
0.090937 0.0608101 -0.993998 
5.99927e-20 0 -1 
0.701857 0.0900848 -0.706598 
5.99928e-20 0 -1 
0.526871 0.0149144 0.849814 
5.99929e-20 0 -1 
5.99926e-20 0 -1 
0.241372 -0.288156 -0.926664 
0.670479 -0.0741981 -0.738209 
5.99927e-20 0 -1 
5.99928e-20 0 -1 
-0.300425 -0.0431754 -0.952828 
0.264077 0.20193 -0.943126 
0.0594124 0.0669924 -0.995983 
-0.49783 -0.313183 -0.808753 
1.51921e-08 -2.5273e-06 -1 
-0.239879 0.586877 -0.773326 
0.0897733 0.117956 -0.988952 
6.00077e-20 0 -1 
-0.201084 0.0519474 -0.978196 
6.00076e-20 0 -1 
6.00075e-20 0 -1 
6.00078e-20 0 -1 
-0.497197 0.125548 0.858506 
6.00077e-20 0 -1 
6.00076e-20 0 -1 
-0.0632918 0.320669 -0.945074 
0.48215 0.23561 -0.843812 
-0.0722076 0.029405 -0.996956 
-0.0715303 0.685847 -0.724222 
-2.87015e-10 3.60943e-08 -1 
0.0926106 0.173238 -0.980516 
6.00239e-20 0 -1 
-0.0844236 0.0659497 -0.994245 
6.00237e-20 0 -1 
6.00234e-20 0 -1 
6.00241e-20 0 -1 
6.0024e-20 0 -1 
6.00236e-20 0 -1 
0.319089 -0.23094 -0.919157 
-0.183738 -0.00722143 -0.982949 
-0.0926454 0.0304522 -0.995233 
-0.0242331 -0.372777 0.927604 
6.0024e-20 0 -1 
0.143042 0.202167 -0.968849 
6.00439e-20 0 -1 
0.172629 0.113958 -0.978373 
6.00435e-20 0 -1 
6.00431e-20 0 -1 
6.00442e-20 0 -1 
6.0044e-20 0 -1 
6.00433e-20 0 -1 
-0.159437 0.0462616 -0.986124 
0.0717099 0.0191853 -0.997241 
-0.0844692 -0.00827305 -0.996392 
0.132719 0.109831 0.98505 
6.0044e-20 0 -1 
0.0759459 0.226037 -0.971154 
6.00697e-20 0 -1 
0.269943 0.119179 -0.955472 
6.00693e-20 0 -1 
6.00687e-20 0 -1 
6.00702e-20 0 -1 
6.00699e-20 0 -1 
6.0069e-20 0 -1 
-0.510817 0.20734 -0.834312 
0.145837 0.0221965 -0.98906 
-0.110612 -0.108418 -0.987932 
6.00699e-20 0 -1 
6.01031e-20 0 1 
6.01026e-20 0 1 
6.01019e-20 0 1 
6.01036e-20 0 1 
6.01033e-20 0 1 
6.01023e-20 0 1 
6.01033e-20 0 1 
-0.00223344 0.0729059 0.997336 
1 0 0 
6.3009e-17 -1 8.38284e-17 
1.09822e-16 -1 -9.72066e-17 
5.98568e-20 0 1 
3.54578e-17 -1.54656e-17 1 
-2.85385e-17 4.90228e-17 1 
9.00236e-17 -1.77991e-17 1 
2.63813e-16 -1.30351e-17 1 
1.01276e-16 2.8073e-17 1 
-4.49951e-17 -5.77482e-17 1 