# vtk DataFile Version 2.0
Generated by NetDEM
ASCII 
DATASET POLYDATA
POINTS 42 double
-0.412677 -0.0038598 -0.462513 
-0.455574 0.010643 -0.500002 
-0.206356 -0.411744 -0.439662 
-0.203184 -0.406162 -0.500003 
0.191631 0.20304 -0.445227 
0.214203 0.216173 -0.500002 
-0.0126161 -0.409304 -0.446373 
0.00474147 -0.420716 -0.500002 
0.39661 -0.20339 -0.450007 
0.39661 -0.20339 -0.5 
0.396508 0.196508 -0.450007 
0.396508 0.196508 -0.5 
0.186784 -0.401891 -0.462531 
0.143706 -0.387889 -0.500002 
-0.209099 0.39159 -0.447846 
-0.217069 0.409182 -0.500002 
0.00345103 0.195791 -0.443888 
-0.00166351 0.2073 -0.500003 
0.400016 0.395846 -0.442618 
0.390627 0.397399 -0.500003 
0.396488 -0.00351175 -0.450007 
0.396488 -0.00351175 -0.5 
-0.403333 -0.203333 -0.450007 
-0.403333 -0.203333 -0.5 
-0.40295 0.19705 -0.450007 
-0.40295 0.19705 -0.5 
-0.402763 0.397237 -0.450007 
-0.402763 0.397237 -0.5 
-0.203538 -0.203538 -0.450007 
-0.203538 -0.203538 -0.5 
-0.203218 -0.00321788 -0.450007 
-0.203218 -0.00321788 -0.5 
-0.00366947 -0.203669 -0.450007 
-0.00366947 -0.203669 -0.5 
-0.00360232 -0.00360232 -0.450007 
-0.00360232 -0.00360232 -0.5 
0.196913 0.396913 -0.450007 
0.196913 0.396913 -0.5 
0.396713 -0.403287 -0.450007 
0.396713 -0.403287 -0.5 
-0.0104791 0.395221 -0.446426 
0.0110381 0.402316 -0.500002 
LINES 21 63
2 0 1
2 2 3
2 4 5
2 6 7
2 8 9
2 10 11
2 12 13
2 14 15
2 16 17
2 18 19
2 20 21
2 22 23
2 24 25
2 26 27
2 28 29
2 30 31
2 32 33
2 34 35
2 36 37
2 38 39
2 40 41
POINT_DATA 42
SCALARS id int 1
LOOKUP_TABLE default
2
4
5
4
18
4
10
4
21
4
23
4
15
4
9
4
13
4
24
4
22
4
1
4
3
4
4
4
6
4
7
4
11
4
12
4
19
4
20
4
14
4
CELL_DATA 21
VECTORS force double
4.80931 -1.77337 7.6661 
-0.345415 -0.658359 10.4508 
-2.4652 -1.55175 8.99943 
-2.09653 1.38376 8.43124 
0 0 13.6117 
0 0 13.6117 
4.57976 -1.79738 7.38671 
1.08089 -2.13761 9.92119 
0.731315 -1.81013 11.4638 
1.48963 -0.31725 12.7866 
0 0 13.6117 
0 0 13.6117 
0 0 13.6117 
0 0 13.6117 
0 0 13.6117 
0 0 13.6117 
0 0 13.6117 
0 0 13.6117 
0 0 13.6117 
0 0 13.6117 
-2.52284 -0.715789 9.5527 
VECTORS moment double
0 0 0 
0 0 0 
0 0 0 
0 0 0 
0 0 0 
0 0 0 
0 0 0 
0 0 0 
0 0 0 
0 0 0 
0 0 0 
0 0 0 
0 0 0 
0 0 0 
0 0 0 
0 0 0 
0 0 0 
0 0 0 
0 0 0 
0 0 0 
0 0 0 
SCALARS num_collisions int 1
LOOKUP_TABLE default
1 
1 
1 
1 
1 
1 
1 
1 
1 
1 
1 
1 
1 
1 
1 
1 
1 
1 
1 
1 
1 
VECTORS pos double
-0.455574 0.010643 -0.500002 
-0.203184 -0.406162 -0.500003 
0.214203 0.216173 -0.500002 
0.00474147 -0.420716 -0.500002 
0.39661 -0.20339 -0.5 
0.396508 0.196508 -0.5 
0.143706 -0.387889 -0.500002 
-0.217069 0.409182 -0.500002 
-0.00166351 0.2073 -0.500003 
0.390627 0.397399 -0.500003 
0.396488 -0.00351175 -0.5 
-0.403333 -0.203333 -0.5 
-0.40295 0.19705 -0.5 
-0.402763 0.397237 -0.5 
-0.203538 -0.203538 -0.5 
-0.203218 -0.00321788 -0.5 
-0.00366947 -0.203669 -0.5 
-0.00360232 -0.00360232 -0.5 
0.196913 0.396913 -0.5 
0.396713 -0.403287 -0.5 
0.0110381 0.402316 -0.500002 
VECTORS dir_n double
1.3341e-16 -6.01107e-17 1 
4.16891e-17 -2.66794e-19 1 
1.94922e-16 -7.47524e-17 1 
2.2706e-16 -2.71537e-17 1 
7.3466e-17 0 1 
7.3466e-17 0 1 
1.75267e-16 1.34501e-16 1 
8.00618e-17 -4.82466e-17 1 
1.00466e-16 1.12968e-16 1 
9.76436e-17 -1.96928e-17 1 
7.3466e-17 0 1 
7.3466e-17 0 1 
7.3466e-17 0 1 
7.3466e-17 0 1 
7.3466e-17 0 1 
7.3466e-17 0 1 
7.3466e-17 0 1 
7.3466e-17 0 1 
7.3466e-17 0 1 
7.3466e-17 0 1 
1.52932e-16 -1.22176e-16 1 
VECTORS dir_s double
0.938247 -0.345966 -2.35791e-17 
-0.464598 -0.885522 -2.53234e-17 
-0.846297 -0.532712 3.11018e-17 
-0.8346 0.550857 1.05473e-16 
1 0 0 
1 0 0 
0.930877 -0.365333 1.20064e-17 
0.451243 -0.892401 -3.36999e-17 
0.374595 -0.927188 9.97848e-17 
0.978065 -0.208301 -2.31125e-17 
1 0 0 
1 0 0 
1 0 0 
1 0 0 
1 0 0 
1 0 0 
1 0 0 
1 0 0 
1 0 0 
1 0 0 
-0.962028 -0.27295 1.30698e-17 
