# vtk DataFile Version 2.0
Generated by NetDEM
ASCII 
DATASET POLYDATA
POINTS 366 double
-0.41691 -0.405462 -0.462823 
-0.402805 -0.399693 -0.388119 
-0.403333 -0.203333 -0.450063 
-0.403333 -0.203333 -0.35012 
-0.411454 -0.00748074 -0.464176 
-0.41265 -0.00930728 -0.390602 
-0.403184 0.197032 -0.450063 
-0.403127 0.197035 -0.350119 
-0.402763 0.397237 -0.450063 
-0.402763 0.397237 -0.35012 
-0.264673 -0.432971 -0.459579 
-0.300719 -0.404721 -0.383762 
-0.203538 -0.203538 -0.450063 
-0.203538 -0.203538 -0.35012 
-0.203218 -0.00321788 -0.450063 
-0.203218 -0.00321788 -0.35012 
-0.175668 0.204796 -0.45804 
-0.206187 0.207449 -0.377593 
-0.246754 0.369131 -0.465047 
-0.154517 0.407681 -0.443611 
-0.0281951 -0.404985 -0.451495 
-0.032669 -0.39129 -0.376167 
-0.00366947 -0.203669 -0.450063 
-0.00366947 -0.203669 -0.35012 
-0.00360232 -0.00360232 -0.450063 
-0.00360232 -0.00360232 -0.35012 
0.189043 -0.398142 -0.464449 
0.187704 -0.396357 -0.392017 
0.174424 -0.212145 -0.464763 
0.194383 -0.20715 -0.391295 
0.172892 -0.00941087 -0.462557 
0.185865 -0.0133921 -0.38384 
0.196913 0.396913 -0.450063 
0.196913 0.396913 -0.35012 
0.396713 -0.403287 -0.450063 
0.396713 -0.403287 -0.35012 
0.39661 -0.20339 -0.450063 
0.39661 -0.20339 -0.35012 
0.396488 -0.00351175 -0.450063 
0.396488 -0.00351175 -0.35012 
0.396508 0.196508 -0.450063 
0.396508 0.196508 -0.35012 
-0.402805 -0.399693 -0.388119 
-0.401112 -0.403942 -0.315971 
-0.403333 -0.203333 -0.35012 
-0.403333 -0.203333 -0.250169 
-0.41265 -0.00930728 -0.390602 
-0.394336 -0.00258182 -0.311259 
-0.403127 0.197035 -0.350119 
-0.4029 0.197053 -0.250168 
-0.402763 0.397237 -0.35012 
-0.402763 0.397237 -0.250169 
-0.300719 -0.404721 -0.383762 
-0.401112 -0.403942 -0.315971 
-0.203538 -0.203538 -0.35012 
-0.203538 -0.203538 -0.250169 
-0.203218 -0.00321788 -0.35012 
-0.203218 -0.00321788 -0.250169 
-0.154517 0.407681 -0.443611 
-0.203293 0.435778 -0.374102 
-0.032669 -0.39129 -0.376167 
-0.001138 -0.409582 -0.297401 
-0.032669 -0.39129 -0.376167 
-0.139411 -0.408308 -0.342754 
-0.00366947 -0.203669 -0.35012 
-0.00366947 -0.203669 -0.250169 
-0.00360232 -0.00360232 -0.35012 
-0.00360232 -0.00360232 -0.250169 
0.187704 -0.396357 -0.392017 
0.175406 -0.394702 -0.318499 
0.194383 -0.20715 -0.391295 
0.177379 -0.185364 -0.305882 
0.185865 -0.0133921 -0.38384 
0.187782 0.00247955 -0.309225 
0.196913 0.396913 -0.35012 
0.196913 0.396913 -0.250169 
0.396713 -0.403287 -0.35012 
0.396713 -0.403287 -0.250169 
0.39661 -0.20339 -0.35012 
0.39661 -0.20339 -0.250169 
0.396488 -0.00351175 -0.35012 
0.396488 -0.00351175 -0.250169 
0.396508 0.196508 -0.35012 
0.396508 0.196508 -0.250169 
-0.401112 -0.403942 -0.315971 
-0.409881 -0.405203 -0.240236 
-0.403333 -0.203333 -0.250169 
-0.403333 -0.203333 -0.150212 
-0.394336 -0.00258182 -0.311259 
-0.393894 0.00137464 -0.234656 
-0.4029 0.197053 -0.250168 
-0.402959 0.19705 -0.15021 
-0.402763 0.397237 -0.250169 
-0.402763 0.397237 -0.150212 
-0.182705 -0.399908 -0.433999 
-0.139411 -0.408308 -0.342754 
-0.203538 -0.203538 -0.250169 
-0.203538 -0.203538 -0.150212 
-0.203218 -0.00321788 -0.250169 
-0.203218 -0.00321788 -0.150212 
-0.206187 0.207449 -0.377593 
-0.149186 0.187494 -0.31912 
-0.203293 0.435778 -0.374102 
-0.210668 0.415935 -0.28593 
-0.001138 -0.409582 -0.297401 
0.0324525 -0.406291 -0.21766 
-0.00366947 -0.203669 -0.250169 
-0.00366947 -0.203669 -0.150212 
-0.00360232 -0.00360232 -0.250169 
-0.00360232 -0.00360232 -0.150212 
0.175406 -0.394702 -0.318499 
0.19968 -0.398721 -0.229396 
0.177379 -0.185364 -0.305882 
0.186472 -0.200244 -0.220494 
0.187782 0.00247955 -0.309225 
0.192212 0.00288214 -0.235323 
0.196913 0.396913 -0.250169 
0.196913 0.396913 -0.150212 
0.396713 -0.403287 -0.250169 
0.396713 -0.403287 -0.150212 
0.39661 -0.20339 -0.250169 
0.39661 -0.20339 -0.150212 
0.396488 -0.00351175 -0.250169 
0.396488 -0.00351175 -0.150212 
0.396508 0.196508 -0.250169 
0.396508 0.196508 -0.150212 
-0.409881 -0.405203 -0.240236 
-0.407336 -0.408381 -0.156216 
-0.403333 -0.203333 -0.150212 
-0.403333 -0.203333 -0.0502473 
-0.393894 0.00137464 -0.234656 
-0.397102 -0.0053593 -0.152853 
-0.402959 0.19705 -0.15021 
-0.402951 0.197049 -0.0502458 
-0.402763 0.397237 -0.150212 
-0.402763 0.397237 -0.0502475 
-0.139411 -0.408308 -0.342754 
-0.232105 -0.401804 -0.290019 
-0.203538 -0.203538 -0.150212 
-0.203538 -0.203538 -0.0502472 
-0.203218 -0.00321788 -0.150212 
-0.203218 -0.00321788 -0.0502477 
-0.149186 0.187494 -0.31912 
-0.214103 0.186609 -0.243215 
-0.210668 0.415935 -0.28593 
-0.222766 0.387474 -0.212677 
0.0324525 -0.406291 -0.21766 
0.009522 -0.391821 -0.140161 
-0.00366947 -0.203669 -0.150212 
-0.00366947 -0.203669 -0.0502471 
-0.00360232 -0.00360232 -0.150212 
-0.00360232 -0.00360232 -0.0502471 
0.19968 -0.398721 -0.229396 
0.197712 -0.405651 -0.157031 
0.186472 -0.200244 -0.220494 
0.198471 -0.231185 -0.13449 
0.192212 0.00288214 -0.235323 
0.187809 0.00114615 -0.162398 
0.196913 0.396913 -0.150212 
0.196913 0.396913 -0.0502477 
0.396713 -0.403287 -0.150212 
0.396713 -0.403287 -0.0502477 
0.39661 -0.20339 -0.150212 
0.39661 -0.20339 -0.0502473 
0.396488 -0.00351175 -0.150212 
0.396488 -0.00351175 -0.0502474 
0.396508 0.196508 -0.150212 
0.396508 0.196508 -0.0502472 
-0.407336 -0.408381 -0.156216 
-0.41266 -0.407038 -0.0796457 
-0.403333 -0.203333 -0.0502473 
-0.403333 -0.203333 0.0497242 
-0.397102 -0.0053593 -0.152853 
-0.41951 -0.00449104 -0.0780013 
-0.402951 0.197049 -0.0502458 
-0.40295 0.19705 0.0497259 
-0.402763 0.397237 -0.0502475 
-0.402763 0.397237 0.049724 
-0.203538 -0.203538 -0.0502472 
-0.203538 -0.203538 0.0497243 
-0.203218 -0.00321788 -0.0502477 
-0.203218 -0.00321788 0.0497237 
-0.214103 0.186609 -0.243215 
-0.20985 0.205516 -0.154449 
0.009522 -0.391821 -0.140161 
-0.0153507 -0.397762 -0.0572869 
-0.00366947 -0.203669 -0.0502471 
-0.00366947 -0.203669 0.0497244 
-0.00360232 -0.00360232 -0.0502471 
-0.00360232 -0.00360232 0.0497244 
0.197712 -0.405651 -0.157031 
0.208232 -0.400878 -0.0779854 
0.198471 -0.231185 -0.13449 
0.193873 -0.208392 -0.0420767 
0.187809 0.00114615 -0.162398 
0.184764 -0.00232976 -0.0864924 
0.196913 0.396913 -0.0502477 
0.196913 0.396913 0.0497238 
0.396713 -0.403287 -0.0502477 
0.396713 -0.403287 0.0497238 
0.39661 -0.20339 -0.0502473 
0.39661 -0.20339 0.0497243 
0.396488 -0.00351175 -0.0502474 
0.396488 -0.00351175 0.0497241 
0.396508 0.196508 -0.0502472 
0.396508 0.196508 0.0497243 
-0.41266 -0.407038 -0.0796457 
-0.408756 -0.403018 0.00352462 
-0.403333 -0.203333 0.0497242 
-0.403333 -0.203333 0.149703 
-0.41951 -0.00449104 -0.0780013 
-0.402293 -0.00024736 0.013451 
-0.40295 0.19705 0.0497259 
-0.402951 0.19705 0.149705 
-0.402763 0.397237 0.049724 
-0.402763 0.397237 0.149703 
-0.203538 -0.203538 0.0497243 
-0.203538 -0.203538 0.149703 
-0.203218 -0.00321788 0.0497237 
-0.203218 -0.00321788 0.149702 
-0.20985 0.205516 -0.154449 
-0.205713 0.202952 -0.0631704 
-0.0153507 -0.397762 -0.0572869 
-0.0104214 -0.404789 0.0365949 
-0.00366947 -0.203669 0.0497244 
-0.00366947 -0.203669 0.149703 
-0.00360232 -0.00360232 0.0497244 
-0.00360232 -0.00360232 0.149703 
0.208232 -0.400878 -0.0779854 
0.188921 -0.406383 -0.0062228 
0.193873 -0.208392 -0.0420767 
0.199157 -0.202544 0.0373622 
0.184764 -0.00232976 -0.0864924 
0.190717 -0.00425672 -0.00306166 
0.196913 0.396913 0.0497238 
0.196913 0.396913 0.149702 
0.396713 -0.403287 0.0497238 
0.396713 -0.403287 0.149702 
0.39661 -0.20339 0.0497243 
0.39661 -0.20339 0.149703 
0.396488 -0.00351175 0.0497241 
0.396488 -0.00351175 0.149703 
0.396508 0.196508 0.0497243 
0.396508 0.196508 0.149703 
-0.408756 -0.403018 0.00352462 
-0.410235 -0.403581 0.0783276 
-0.403333 -0.203333 0.149703 
-0.403333 -0.203333 0.249689 
-0.402293 -0.00024736 0.013451 
-0.411176 -0.00376832 0.0867511 
-0.402951 0.19705 0.149705 
-0.40295 0.19705 0.24969 
-0.402763 0.397237 0.149703 
-0.402763 0.397237 0.249688 
-0.203538 -0.203538 0.149703 
-0.203538 -0.203538 0.249689 
-0.203218 -0.00321788 0.149702 
-0.203218 -0.00321788 0.249688 
-0.00366947 -0.203669 0.149703 
-0.00366947 -0.203669 0.249689 
-0.00360232 -0.00360232 0.149703 
-0.00360232 -0.00360232 0.249689 
0.00254652 0.193173 -0.00205458 
0.00179226 0.200087 0.088751 
0.188921 -0.406383 -0.0062228 
0.197203 -0.399929 0.0851918 
0.199157 -0.202544 0.0373622 
0.194115 -0.204421 0.127334 
0.190717 -0.00425672 -0.00306166 
0.18889 -0.00645263 0.0710425 
0.196913 0.396913 0.149702 
0.196913 0.396913 0.249688 
0.396713 -0.403287 0.149702 
0.396713 -0.403287 0.249688 
0.39661 -0.20339 0.149703 
0.39661 -0.20339 0.249689 
0.396488 -0.00351175 0.149703 
0.396488 -0.00351175 0.249688 
0.396508 0.196508 0.149703 
0.396508 0.196508 0.249689 
0.398324 0.385529 -0.0208844 
0.396713 0.400697 0.0657186 
-0.410235 -0.403581 0.0783276 
-0.403613 -0.403639 0.172513 
-0.403333 -0.203333 0.249689 
-0.403333 -0.203333 0.349681 
-0.411176 -0.00376832 0.0867511 
-0.403734 -0.00397365 0.177016 
-0.40295 0.19705 0.24969 
-0.40295 0.19705 0.349683 
-0.402763 0.397237 0.249688 
-0.402763 0.397237 0.349681 
-0.203538 -0.203538 0.249689 
-0.203538 -0.203538 0.349681 
-0.203218 -0.00321788 0.249688 
-0.203218 -0.00321788 0.349681 
-0.00366947 -0.203669 0.249689 
-0.00366947 -0.203669 0.349682 
-0.00360232 -0.00360232 0.249689 
-0.00360232 -0.00360232 0.349682 
0.196913 0.396913 0.249688 
0.196913 0.396913 0.349681 
0.396713 -0.403287 0.249688 
0.396713 -0.403287 0.349681 
0.39661 -0.20339 0.249689 
0.39661 -0.20339 0.349681 
0.396488 -0.00351175 0.249688 
0.396488 -0.00351175 0.349681 
0.396508 0.196508 0.249689 
0.396508 0.196508 0.349681 
0.396713 0.400697 0.0657186 
0.396548 0.396484 0.17386 
0.172892 -0.00941087 -0.462557 
0.209887 -0.0114908 -0.50002 
-0.411454 -0.00748074 -0.464176 
-0.395038 -0.0093278 -0.500028 
-0.037199 0.393393 -0.465044 
-0.017839 0.396205 -0.500001 
0.371601 0.444682 -0.464012 
0.373481 0.459142 -0.500003 
0.158377 0.209766 -0.465036 
0.162101 0.217883 -0.500006 
0.39661 -0.20339 -0.450063 
0.39661 -0.20339 -0.5 
-0.41691 -0.405462 -0.462823 
-0.395882 -0.395955 -0.500022 
0.396508 0.196508 -0.450063 
0.396508 0.196508 -0.5 
0.189043 -0.398142 -0.464449 
0.194264 -0.395591 -0.500038 
-0.175668 0.204796 -0.45804 
-0.195147 0.214008 -0.50002 
0.174424 -0.212145 -0.464763 
0.199677 -0.186156 -0.500018 
-0.246754 0.369131 -0.465047 
-0.236959 0.368643 -0.500002 
-0.264673 -0.432971 -0.459579 
-0.260749 -0.419195 -0.500006 
0.396488 -0.00351175 -0.450063 
0.396488 -0.00351175 -0.5 
-0.403333 -0.203333 -0.450063 
-0.403333 -0.203333 -0.5 
-0.403184 0.197032 -0.450063 
-0.403183 0.197032 -0.5 
-0.402763 0.397237 -0.450063 
-0.402763 0.397237 -0.5 
-0.203538 -0.203538 -0.450063 
-0.203538 -0.203538 -0.5 
-0.203218 -0.00321788 -0.450063 
-0.203218 -0.00321788 -0.5 
-0.00366947 -0.203669 -0.450063 
-0.00366947 -0.203669 -0.5 
-0.00360232 -0.00360232 -0.450063 
-0.00360232 -0.00360232 -0.5 
0.196913 0.396913 -0.450063 
0.196913 0.396913 -0.5 
0.396713 -0.403287 -0.450063 
0.396713 -0.403287 -0.5 
-0.182705 -0.399908 -0.433999 
-0.163297 -0.434142 -0.500049 
0.035928 0.174683 -0.45078 
0.0395108 0.165872 -0.500002 
-0.154517 0.407681 -0.443611 
-0.137228 0.406596 -0.500008 
-0.0281951 -0.404985 -0.451495 
-0.00482668 -0.387913 -0.500007 
LINES 183 549
2 0 1
2 2 3
2 4 5
2 6 7
2 8 9
2 10 11
2 12 13
2 14 15
2 16 17
2 18 19
2 20 21
2 22 23
2 24 25
2 26 27
2 28 29
2 30 31
2 32 33
2 34 35
2 36 37
2 38 39
2 40 41
2 42 43
2 44 45
2 46 47
2 48 49
2 50 51
2 52 53
2 54 55
2 56 57
2 58 59
2 60 61
2 62 63
2 64 65
2 66 67
2 68 69
2 70 71
2 72 73
2 74 75
2 76 77
2 78 79
2 80 81
2 82 83
2 84 85
2 86 87
2 88 89
2 90 91
2 92 93
2 94 95
2 96 97
2 98 99
2 100 101
2 102 103
2 104 105
2 106 107
2 108 109
2 110 111
2 112 113
2 114 115
2 116 117
2 118 119
2 120 121
2 122 123
2 124 125
2 126 127
2 128 129
2 130 131
2 132 133
2 134 135
2 136 137
2 138 139
2 140 141
2 142 143
2 144 145
2 146 147
2 148 149
2 150 151
2 152 153
2 154 155
2 156 157
2 158 159
2 160 161
2 162 163
2 164 165
2 166 167
2 168 169
2 170 171
2 172 173
2 174 175
2 176 177
2 178 179
2 180 181
2 182 183
2 184 185
2 186 187
2 188 189
2 190 191
2 192 193
2 194 195
2 196 197
2 198 199
2 200 201
2 202 203
2 204 205
2 206 207
2 208 209
2 210 211
2 212 213
2 214 215
2 216 217
2 218 219
2 220 221
2 222 223
2 224 225
2 226 227
2 228 229
2 230 231
2 232 233
2 234 235
2 236 237
2 238 239
2 240 241
2 242 243
2 244 245
2 246 247
2 248 249
2 250 251
2 252 253
2 254 255
2 256 257
2 258 259
2 260 261
2 262 263
2 264 265
2 266 267
2 268 269
2 270 271
2 272 273
2 274 275
2 276 277
2 278 279
2 280 281
2 282 283
2 284 285
2 286 287
2 288 289
2 290 291
2 292 293
2 294 295
2 296 297
2 298 299
2 300 301
2 302 303
2 304 305
2 306 307
2 308 309
2 310 311
2 312 313
2 314 315
2 316 317
2 318 319
2 320 321
2 322 323
2 324 325
2 326 327
2 328 329
2 330 331
2 332 333
2 334 335
2 336 337
2 338 339
2 340 341
2 342 343
2 344 345
2 346 347
2 348 349
2 350 351
2 352 353
2 354 355
2 356 357
2 358 359
2 360 361
2 362 363
2 364 365
POINT_DATA 366
SCALARS id int 1
LOOKUP_TABLE default
0
25
1
26
2
27
3
28
4
29
5
30
6
31
7
32
8
58
9
34
10
35
11
36
12
37
15
40
16
41
17
42
19
44
20
45
21
46
22
47
23
48
25
50
26
51
27
52
28
53
29
54
30
50
31
56
32
57
34
59
35
60
35
80
36
61
37
62
40
65
41
66
42
67
44
69
45
70
46
71
47
72
48
73
50
75
51
76
52
77
53
78
54
79
55
80
56
81
57
82
58
83
59
84
60
85
61
86
62
87
65
90
66
91
67
92
69
94
70
95
71
96
72
97
73
98
75
100
76
101
77
102
78
103
79
104
80
105
81
106
82
107
83
108
84
109
85
110
86
111
87
112
90
115
91
116
92
117
94
119
95
120
96
121
97
122
98
123
100
125
101
126
102
127
103
128
104
129
106
131
107
132
108
133
110
135
111
136
112
137
115
140
116
141
117
142
119
144
120
145
121
146
122
147
123
148
125
150
126
151
127
152
128
153
129
154
131
156
132
157
133
158
135
160
136
161
137
162
140
165
141
166
142
167
144
169
145
170
146
171
147
172
148
173
150
175
151
176
152
177
153
178
154
179
156
181
157
182
161
186
162
187
163
188
165
190
166
191
167
192
169
194
170
195
171
196
172
197
173
198
174
199
175
200
176
201
177
202
178
203
179
204
181
206
182
207
186
211
187
212
194
219
195
220
196
221
197
222
198
223
199
224
17
4
2
4
14
4
24
4
18
4
21
4
0
4
23
4
15
4
8
4
16
4
9
4
5
4
22
4
1
4
3
4
4
4
6
4
7
4
11
4
12
4
19
4
20
4
55
4
13
4
34
4
10
4
CELL_DATA 183
VECTORS force double
-1.25119 3.91502 -75.9305 
0 0 -112.406 
-0.870874 -1.94278 -109.809 
-0.0924658 -0.00571689 -111.592 
0 0 -112.538 
2.31107 1.05271 -11.1762 
0 0 -112.376 
0 0 -112.604 
13.9607 4.03228 -70.9823 
-7.96662 -7.3026 -18.1591 
-18.241 -6.46366 -3.6487 
0 0 -112.307 
0 0 -112.336 
-1.78835 -0.552871 -135.015 
3.16324 0.923698 -64.0659 
5.66839 -7.64478 -73.2473 
0 0 -112.587 
0 0 -112.574 
0 0 -112.4 
0 0 -112.459 
0 0 -112.382 
-1.29495 -3.38737 -63.7466 
0 0 -98.652 
2.37186 -5.03078 -114.757 
-0.144079 -0.010441 -97.9436 
0 0 -98.772 
4.93148 -1.09927 1.28195 
0 0 -98.6249 
0 0 -98.8373 
9.44185 -8.10541 -61.5249 
-37.8372 -6.48805 -43.7824 
28.8578 6.94724 18.7072 
0 0 -98.5597 
0 0 -98.5859 
-0.644192 -1.24566 -114.244 
2.77508 5.64167 -55.5772 
1.24025 -0.331127 -67.1084 
0 0 -98.8214 
0 0 -98.8108 
0 0 -98.6447 
0 0 -98.703 
0 0 -98.6296 
3.8921 -1.6354 -52.4821 
0 0 -84.8043 
0.787489 -6.5736 -129.585 
-0.0190748 -0.00295053 -84.2458 
0 0 -84.9072 
-19.0044 -18.9671 -209.274 
0 0 -84.7809 
0 0 -84.9705 
3.66526 3.84396 -30.5911 
3.35044 -1.77145 -62.2989 
2.03249 6.87079 -42.0154 
0 0 -84.7218 
0 0 -84.7441 
-0.122434 -0.149835 -92.6356 
-8.08958 7.40685 -58.7666 
1.37404 2.2632 -52.9737 
0 0 -84.9563 
0 0 -84.9482 
0 0 -84.796 
0 0 -84.8521 
0 0 -84.7848 
2.62002 2.2196 -51.0339 
0 0 -70.8553 
-5.4769 -0.718837 -112.151 
0.0113 0.0012961 -70.4598 
0 0 -70.9385 
25.0704 -2.4506 -111.314 
0 0 -70.8362 
0 0 -70.9972 
-1.31996 1.46647 -18.4753 
9.76839 10.2844 -35.1767 
-5.25945 -5.01145 -26.6937 
0 0 -70.7851 
0 0 -70.8028 
1.77572 3.91948 -49.8919 
-4.66078 2.43668 -68.1612 
3.23404 0.761105 -40.3624 
0 0 -70.9852 
0 0 -70.9797 
0 0 -70.8464 
0 0 -70.8981 
0 0 -70.8392 
-0.330181 -6.01603 -62.7471 
0 0 -56.8092 
7.88028 -1.73527 -71.3561 
-0.00268711 -0.000153706 -56.5602 
0 0 -56.8726 
0 0 -56.7946 
0 0 -56.9238 
4.19187 0.826309 -5.6796 
3.40706 -3.08822 -11.3015 
0 0 -56.7529 
0 0 -56.7661 
-0.467498 3.61686 -30.572 
7.69434 3.63234 -50.8464 
4.42696 -0.438805 -26.4472 
0 0 -56.9142 
0 0 -56.9109 
0 0 -56.8006 
0 0 -56.8454 
0 0 -56.7967 
43.7088 -1.22575 -103.436 
0 0 -42.6803 
5.89757 0.230438 -28.9085 
0.000256411 -7.67012e-05 -42.5427 
0 0 -42.7253 
0 0 -42.67 
0 0 -42.7663 
-0.567022 0.14584 -2.02827 
1.64254 1.6782 -3.19302 
0 0 -42.6383 
0 0 -42.6474 
-2.27551 -0.173485 -10.9256 
1.78945 -2.75714 -25.216 
4.31438 0.7282 -11.8647 
0 0 -42.7591 
0 0 -42.7575 
0 0 -42.6728 
0 0 -42.7086 
0 0 -42.6713 
-305.231 -92.6937 -749.899 
0 0 -28.4883 
11.7724 5.45313 15.3556 
4.3745e-05 3.22706e-05 -28.4231 
0 0 -28.5168 
0 0 -28.4817 
0 0 -28.5454 
0 0 -28.4605 
0 0 -28.4661 
-3.65661 2.48327 17.1842 
2.11913 0.988162 -1.71517 
-2.69666 -1.46411 -5.62312 
1.19848 1.60598 -2.53356 
0 0 -28.5406 
0 0 -28.54 
0 0 -28.4827 
0 0 -28.5076 
0 0 -28.4824 
48.6471 -14.4431 -357.931 
-142.729 -38.4816 -771.871 
0 0 -14.2544 
6.3754 0.813132 37.1195 
-2.39236e-05 -8.4731e-06 -14.2304 
0 0 -14.2682 
0 0 -14.2512 
0 0 -14.2829 
0 0 -14.2406 
0 0 -14.2433 
0 0 -14.2805 
0 0 -14.2803 
0 0 -14.2515 
0 0 -14.2643 
0 0 -14.2516 
-57.2343 31.7915 -150.885 
-6.34336 10.82 84.9273 
-0.0457604 7.23937 120.875 
-1.5666 1.2313 13.2303 
-0.258559 -2.87202 12.2681 
-1.07885 -2.67055 15.7278 
0 0 126.078 
0.094953 -4.88488 87.6441 
0 0 126.058 
2.08162 -1.01047 152.384 
-6.8538 -1.73064 77.8865 
-1.88005 -0.188019 73.1125 
6.60428 6.70454 25.4789 
-2.08941 -0.282871 24.3053 
0 0 126.137 
0 0 126.084 
0.00610568 0.000222725 125.219 
0 0 126.222 
0 0 126.052 
0 0 126.288 
0 0 125.982 
0 0 126.012 
0 0 126.27 
0 0 126.256 
-30.1826 122.378 270.564 
0.0523737 1.2314 9.3997 
-32.7227 4.15261 48.3558 
-6.95706 -3.23619 6.95125 
VECTORS moment double
0 0 0 
0 0 0 
0 0 0 
0 0 0 
0 0 0 
0 0 0 
0 0 0 
0 0 0 
0 0 0 
0 0 0 
0 0 0 
0 0 0 
0 0 0 
0 0 0 
0 0 0 
0 0 0 
0 0 0 
0 0 0 
0 0 0 
0 0 0 
0 0 0 
0 0 0 
0 0 0 
0 0 0 
0 0 0 
0 0 0 
0 0 0 
0 0 0 
0 0 0 
0 0 0 
0 0 0 
0 0 0 
0 0 0 
0 0 0 
0 0 0 
0 0 0 
0 0 0 
0 0 0 
0 0 0 
0 0 0 
0 0 0 
0 0 0 
0 0 0 
0 0 0 
0 0 0 
0 0 0 
0 0 0 
0 0 0 
0 0 0 
0 0 0 
0 0 0 
0 0 0 
0 0 0 
0 0 0 
0 0 0 
0 0 0 
0 0 0 
0 0 0 
0 0 0 
0 0 0 
0 0 0 
0 0 0 
0 0 0 
0 0 0 
0 0 0 
0 0 0 
0 0 0 
0 0 0 
0 0 0 
0 0 0 
0 0 0 
0 0 0 
0 0 0 
0 0 0 
0 0 0 
0 0 0 
0 0 0 
0 0 0 
0 0 0 
0 0 0 
0 0 0 
0 0 0 
0 0 0 
0 0 0 
0 0 0 
0 0 0 
0 0 0 
0 0 0 
0 0 0 
0 0 0 
0 0 0 
0 0 0 
0 0 0 
0 0 0 
0 0 0 
0 0 0 
0 0 0 
0 0 0 
0 0 0 
0 0 0 
0 0 0 
0 0 0 
0 0 0 
0 0 0 
0 0 0 
0 0 0 
0 0 0 
0 0 0 
0 0 0 
0 0 0 
0 0 0 
0 0 0 
0 0 0 
0 0 0 
0 0 0 
0 0 0 
0 0 0 
0 0 0 
0 0 0 
0 0 0 
0 0 0 
0 0 0 
0 0 0 
0 0 0 
0 0 0 
0 0 0 
0 0 0 
0 0 0 
0 0 0 
0 0 0 
0 0 0 
0 0 0 
0 0 0 
0 0 0 
0 0 0 
0 0 0 
0 0 0 
0 0 0 
0 0 0 
0 0 0 
0 0 0 
0 0 0 
0 0 0 
0 0 0 
0 0 0 
0 0 0 
0 0 0 
0 0 0 
0 0 0 
0 0 0 
0 0 0 
0 0 0 
0 0 0 
0 0 0 
0 0 0 
0 0 0 
0 0 0 
0 0 0 
0 0 0 
0 0 0 
0 0 0 
0 0 0 
0 0 0 
0 0 0 
0 0 0 
0 0 0 
0 0 0 
0 0 0 
0 0 0 
0 0 0 
0 0 0 
0 0 0 
0 0 0 
0 0 0 
0 0 0 
0 0 0 
0 0 0 
0 0 0 
0 0 0 
0 0 0 
0 0 0 
0 0 0 
0 0 0 
SCALARS num_collisions int 1
LOOKUP_TABLE default
1 
1 
1 
1 
1 
1 
1 
1 
1 
1 
1 
1 
1 
1 
1 
1 
1 
1 
1 
1 
1 
1 
1 
1 
1 
1 
1 
1 
1 
1 
1 
1 
1 
1 
1 
1 
1 
1 
1 
1 
1 
1 
1 
1 
1 
1 
1 
1 
1 
1 
1 
1 
1 
1 
1 
1 
1 
1 
1 
1 
1 
1 
1 
1 
1 
1 
1 
1 
1 
1 
1 
1 
1 
1 
1 
1 
1 
1 
1 
1 
1 
1 
1 
1 
1 
1 
1 
1 
1 
1 
1 
1 
1 
1 
1 
1 
1 
1 
1 
1 
1 
1 
1 
1 
1 
1 
1 
1 
1 
1 
1 
1 
1 
1 
1 
1 
1 
1 
1 
1 
1 
1 
1 
1 
1 
1 
1 
1 
1 
1 
1 
1 
1 
1 
1 
1 
1 
1 
1 
1 
1 
1 
1 
1 
1 
1 
1 
1 
1 
1 
1 
1 
1 
1 
1 
1 
1 
1 
1 
1 
1 
1 
1 
1 
1 
1 
1 
1 
1 
1 
1 
1 
1 
1 
1 
1 
1 
1 
1 
1 
1 
1 
1 
VECTORS pos double
-0.392074 -0.401272 -0.423983 
-0.403333 -0.203333 -0.400092 
-0.393396 -0.00238277 -0.424033 
-0.403155 0.197033 -0.400091 
-0.402763 0.397237 -0.400092 
-0.269944 -0.404467 -0.422507 
-0.203538 -0.203538 -0.400092 
-0.203218 -0.00321788 -0.400092 
-0.197577 0.216068 -0.429367 
-0.201069 0.393138 -0.453579 
-0.0306385 -0.382944 -0.414712 
-0.00366947 -0.203669 -0.400091 
-0.00360232 -0.00360232 -0.400091 
0.19717 -0.396028 -0.425738 
0.195613 -0.188937 -0.425629 
0.209244 0.000181009 -0.425591 
0.196913 0.396913 -0.400092 
0.396713 -0.403287 -0.400092 
0.39661 -0.20339 -0.400092 
0.396488 -0.00351175 -0.400092 
0.396508 0.196508 -0.400092 
-0.386964 -0.403124 -0.349262 
-0.403333 -0.203333 -0.300145 
-0.390104 0.00143896 -0.346538 
-0.403013 0.197044 -0.300144 
-0.402763 0.397237 -0.300145 
-0.345695 -0.407672 -0.334476 
-0.203538 -0.203538 -0.300144 
-0.203218 -0.00321788 -0.300145 
-0.19494 0.412942 -0.411144 
-0.0116697 -0.380369 -0.341537 
-0.078601 -0.407417 -0.353273 
-0.00366947 -0.203669 -0.300144 
-0.00360232 -0.00360232 -0.300144 
0.197709 -0.393686 -0.346904 
0.187502 -0.189278 -0.344184 
0.205749 0.00591879 -0.348814 
0.196913 0.396913 -0.300145 
0.396713 -0.403287 -0.300145 
0.39661 -0.20339 -0.300144 
0.396488 -0.00351175 -0.300145 
0.396508 0.196508 -0.300144 
-0.390125 -0.395498 -0.269953 
-0.403333 -0.203333 -0.200191 
-0.380017 -0.00842032 -0.26683 
-0.40293 0.197052 -0.200189 
-0.402763 0.397237 -0.200191 
-0.164757 -0.396573 -0.384384 
-0.203538 -0.203538 -0.200191 
-0.203218 -0.00321788 -0.200191 
-0.185635 0.201921 -0.326981 
-0.19703 0.422563 -0.31921 
0.0139358 -0.408287 -0.248248 
-0.00366947 -0.203669 -0.20019 
-0.00360232 -0.00360232 -0.20019 
0.203195 -0.396003 -0.266485 
0.189798 -0.203379 -0.277009 
0.209818 0.00510902 -0.273114 
0.196913 0.396913 -0.200191 
0.396713 -0.403287 -0.200191 
0.39661 -0.20339 -0.200191 
0.396488 -0.00351175 -0.200191 
0.396508 0.196508 -0.200191 
-0.391611 -0.399372 -0.189238 
-0.403333 -0.203333 -0.10023 
-0.388804 -0.00274311 -0.187205 
-0.402955 0.19705 -0.100228 
-0.402763 0.397237 -0.10023 
-0.182773 -0.407074 -0.324921 
-0.203538 -0.203538 -0.10023 
-0.203218 -0.00321788 -0.10023 
-0.188397 0.204993 -0.275067 
-0.211339 0.413355 -0.236236 
0.0221277 -0.408942 -0.179852 
-0.00366947 -0.203669 -0.100229 
-0.00360232 -0.00360232 -0.100229 
0.204796 -0.393697 -0.190329 
0.205201 -0.210343 -0.163933 
0.21071 0.000864988 -0.198058 
0.196913 0.396913 -0.10023 
0.396713 -0.403287 -0.10023 
0.39661 -0.20339 -0.10023 
0.396488 -0.00351175 -0.10023 
0.396508 0.196508 -0.10023 
-0.390031 -0.398632 -0.110902 
-0.403333 -0.203333 -0.000261658 
-0.387867 -0.00187265 -0.101652 
-0.40295 0.197049 -0.000260074 
-0.402763 0.397237 -0.00026189 
-0.203538 -0.203538 -0.000261604 
-0.203218 -0.00321788 -0.000262106 
-0.21539 0.203775 -0.192677 
0.0152416 -0.390694 -0.10075 
-0.00366947 -0.203669 -0.00026144 
-0.00360232 -0.00360232 -0.000261486 
0.199923 -0.403289 -0.117348 
0.199879 -0.209775 -0.0789577 
0.211343 0.00196542 -0.121657 
0.196913 0.396913 -0.000262068 
0.396713 -0.403287 -0.000262061 
0.39661 -0.20339 -0.000261617 
0.396488 -0.00351175 -0.000261806 
0.396508 0.196508 -0.000261611 
-0.390702 -0.394679 -0.0313553 
-0.403333 -0.203333 0.0997134 
-0.397373 0.00440857 -0.0236993 
-0.40295 0.19705 0.0997151 
-0.402763 0.397237 0.0997131 
-0.203538 -0.203538 0.0997134 
-0.203218 -0.00321788 0.0997129 
-0.218673 0.210898 -0.116308 
0.00448156 -0.384034 -0.0152281 
-0.00366947 -0.203669 0.0997136 
-0.00360232 -0.00360232 0.0997136 
0.209014 -0.394749 -0.0337759 
0.191189 -0.21157 -0.00430195 
0.219377 0.00873933 -0.0458852 
0.196913 0.396913 0.0997129 
0.396713 -0.403287 0.0997129 
0.39661 -0.20339 0.0997134 
0.396488 -0.00351175 0.0997132 
0.396508 0.196508 0.0997134 
-0.419706 -0.404107 0.0383701 
-0.403333 -0.203333 0.199696 
-0.421064 -0.00149949 0.0470437 
-0.402951 0.19705 0.199697 
-0.402763 0.397237 0.199695 
-0.203538 -0.203538 0.199696 
-0.203218 -0.00321788 0.199695 
-0.00366947 -0.203669 0.199696 
-0.00360232 -0.00360232 0.199696 
-0.0226565 0.212517 0.0406976 
0.207742 -0.397337 0.0495236 
0.205925 -0.194095 0.0907851 
0.175353 0.00597528 0.0342894 
0.196913 0.396913 0.199695 
0.396713 -0.403287 0.199695 
0.39661 -0.20339 0.199696 
0.396488 -0.00351175 0.199695 
0.396508 0.196508 0.199696 
0.380944 0.40902 0.0134131 
-0.38332 -0.393977 0.130366 
-0.403333 -0.203333 0.299685 
-0.383825 0.00631571 0.139114 
-0.40295 0.19705 0.299687 
-0.402763 0.397237 0.299685 
-0.203538 -0.203538 0.299685 
-0.203218 -0.00321788 0.299684 
-0.00366947 -0.203669 0.299685 
-0.00360232 -0.00360232 0.299685 
0.196913 0.396913 0.299684 
0.396713 -0.403287 0.299684 
0.39661 -0.20339 0.299685 
0.396488 -0.00351175 0.299685 
0.396508 0.196508 0.299685 
0.390537 0.397222 0.116213 
0.209887 -0.0114908 -0.50002 
-0.395038 -0.0093278 -0.500028 
-0.017839 0.396205 -0.500001 
0.373481 0.459142 -0.500003 
0.162101 0.217883 -0.500006 
0.39661 -0.20339 -0.5 
-0.395882 -0.395955 -0.500022 
0.396508 0.196508 -0.5 
0.194264 -0.395591 -0.500038 
-0.195147 0.214008 -0.50002 
0.199677 -0.186156 -0.500018 
-0.236959 0.368643 -0.500002 
-0.260749 -0.419195 -0.500006 
0.396488 -0.00351175 -0.5 
-0.403333 -0.203333 -0.5 
-0.403183 0.197032 -0.5 
-0.402763 0.397237 -0.5 
-0.203538 -0.203538 -0.5 
-0.203218 -0.00321788 -0.5 
-0.00366947 -0.203669 -0.5 
-0.00360232 -0.00360232 -0.5 
0.196913 0.396913 -0.5 
0.396713 -0.403287 -0.5 
-0.163297 -0.434142 -0.500049 
0.0395108 0.165872 -0.500002 
-0.137228 0.406596 -0.500008 
-0.00482668 -0.387913 -0.500007 
VECTORS dir_n double
-0.0710632 -0.0100101 -0.997422 
8.89632e-18 0 -1 
0.164855 -0.038217 -0.985577 
-0.000572197 -2.49177e-05 -1 
8.88586e-18 0 -1 
0.514559 -0.242039 -0.822585 
8.89868e-18 0 -1 
8.88067e-18 0 -1 
0.492388 0.0643902 -0.867991 
-0.767841 -0.452448 -0.453555 
-0.204313 -0.057209 -0.977233 
8.90415e-18 0 -1 
8.90185e-18 0 -1 
0.217456 -0.0416506 -0.975181 
-0.25855 0.138603 -0.956003 
-0.143547 -0.0274249 -0.989263 
8.88202e-18 0 -1 
8.88302e-18 0 -1 
8.89682e-18 0 -1 
8.89215e-18 0 -1 
8.89825e-18 0 -1 
0.155186 0.11695 -0.980938 
1.01366e-17 0 -1 
0.119684 -0.102199 -0.987538 
-0.0022585 -0.000187383 -0.999997 
1.01243e-17 0 -1 
0.89467 -0.36982 -0.250596 
1.01394e-17 0 -1 
1.01176e-17 0 -1 
0.454185 -0.54267 -0.706559 
-0.100517 0.0531457 -0.993515 
0.884182 -0.0251698 -0.466464 
1.01461e-17 0 -1 
1.01434e-17 0 -1 
0.406278 0.0637968 -0.91152 
-0.0392028 0.0895517 -0.99521 
-0.105581 -0.0594346 -0.992633 
1.01193e-17 0 -1 
1.01204e-17 0 -1 
1.01374e-17 0 -1 
1.01314e-17 0 -1 
1.01389e-17 0 -1 
0.271995 0.142215 -0.951732 
1.17918e-17 0 -1 
0.373655 0.00973038 -0.927517 
0.000586705 3.31255e-05 -1 
1.17776e-17 0 -1 
0.0371305 0.0535211 -0.997876 
1.17951e-17 0 -1 
1.17688e-17 0 -1 
-0.837695 0.142299 -0.527274 
0.376253 0.351842 -0.857112 
-0.429771 -0.123477 -0.894455 
1.18033e-17 0 -1 
1.18002e-17 0 -1 
-0.215096 0.237466 -0.947282 
-0.245787 0.450002 -0.858538 
-0.0256598 -0.0468987 -0.99857 
1.17708e-17 0 -1 
1.17719e-17 0 -1 
1.1793e-17 0 -1 
1.17852e-17 0 -1 
1.17946e-17 0 -1 
0.0923871 0.106098 -0.990054 
1.41133e-17 0 -1 
0.394539 0.0671142 -0.916425 
-8.16097e-05 1.04168e-05 -1 
1.40967e-17 0 -1 
0.676832 -0.411929 -0.610093 
1.41171e-17 0 -1 
1.40851e-17 0 -1 
0.84914 -0.0398165 -0.526664 
0.500465 0.471985 -0.725786 
-0.121996 0.11838 -0.985446 
1.41273e-17 0 -1 
1.41237e-17 0 -1 
0.0340022 0.228027 -0.973061 
-0.0907522 0.453754 -0.886494 
0.0713308 0.0515523 -0.99612 
1.40875e-17 0 -1 
1.40885e-17 0 -1 
1.4115e-17 0 -1 
1.41048e-17 0 -1 
1.41165e-17 0 -1 
0.158402 0.115127 -0.98064 
1.76028e-17 0 -1 
0.459196 0.0759654 -0.885081 
-1.10288e-05 -6.62991e-06 -1 
1.75832e-17 0 -1 
1.76073e-17 0 -1 
1.75674e-17 0 -1 
0.209865 -0.0420433 -0.976826 
0.0597557 0.32698 -0.94314 
1.76202e-17 0 -1 
1.76162e-17 0 -1 
0.253439 0.15798 -0.954364 
-0.200548 -0.0125665 -0.979603 
0.0694862 0.0818022 -0.994223 
1.75703e-17 0 -1 
1.75713e-17 0 -1 
1.76055e-17 0 -1 
1.75916e-17 0 -1 
1.76066e-17 0 -1 
0.0921365 0.131399 -0.987039 
2.343e-17 0 -1 
-0.242214 0.0543238 -0.968701 
8.40299e-06 1.16012e-06 -1 
2.34053e-17 0 -1 
2.34357e-17 0 -1 
2.33829e-17 0 -1 
0.441821 0.172889 -0.880286 
-0.194345 0.274483 -0.941748 
2.34531e-17 0 -1 
2.34481e-17 0 -1 
0.445494 0.161369 -0.880622 
-0.145204 0.243158 -0.959057 
-0.139239 0.0636644 -0.98821 
2.33868e-17 0 -1 
2.33877e-17 0 -1 
2.34341e-17 0 -1 
2.34145e-17 0 -1 
2.3435e-17 0 -1 
0.25757 0.20312 -0.944669 
3.51022e-17 0 -1 
-0.192248 -0.147814 0.97015 
-1.72714e-06 -1.89176e-07 -1 
3.5067e-17 0 -1 
3.51103e-17 0 -1 
3.5032e-17 0 -1 
3.51364e-17 0 -1 
3.51295e-17 0 -1 
0.121236 0.0805408 0.989351 
-0.061616 0.087633 -0.994245 
-0.160559 0.437584 -0.884727 
0.039542 0.0933861 -0.994844 
3.50378e-17 0 -1 
3.50386e-17 0 -1 
3.5109e-17 0 -1 
3.50783e-17 0 -1 
3.51093e-17 0 -1 
0.0109977 -0.168653 -0.985614 
-0.258412 0.141277 -0.955648 
7.01536e-17 0 -1 
0.0387868 -0.0740724 0.996498 
3.33434e-07 3.29946e-08 -1 
7.00857e-17 0 -1 
7.01693e-17 0 -1 
7.00138e-17 0 -1 
7.02216e-17 0 -1 
7.02084e-17 0 -1 
7.00254e-17 0 -1 
7.00264e-17 0 -1 
7.0168e-17 0 -1 
7.01052e-17 0 -1 
7.01676e-17 0 -1 
-0.0764425 0.0832302 -0.993594 
2.82784e-17 6.09713e-17 1 
8.56311e-18 -3.92503e-17 1 
1.87646e-16 1.06054e-16 1 
4.48356e-17 -7.18648e-17 1 
1.14724e-16 7.11627e-17 1 
7.9316e-18 0 1 
-1.31692e-17 -1.09131e-17 1 
7.93284e-18 0 1 
2.5726e-17 -8.90977e-17 1 
-4.675e-17 1.18187e-16 1 
-5.92014e-17 -2.40604e-17 1 
-1.13986e-16 3.00874e-17 1 
-8.1625e-17 -1.6206e-16 1 
7.92788e-18 0 1 
7.93124e-18 0 1 
7.98602e-18 0 1 
7.92252e-18 0 1 
7.9332e-18 0 1 
7.91842e-18 0 1 
7.93766e-18 0 1 
7.93574e-18 0 1 
7.91952e-18 0 1 
7.92039e-18 0 1 
4.61118e-17 -8.20099e-17 1 
1.31034e-16 8.06449e-17 1 
-1.40808e-16 -1.05373e-16 1 
9.77686e-17 -2.71735e-17 1 
VECTORS dir_s double
0.661578 0.747883 -0.0546411 
1 0 0 
-0.979057 0.114686 -0.168211 
-0.994776 -0.102083 0.000571751 
1 0 0 
-0.54057 0.653105 -0.530319 
1 0 0 
1 0 0 
-0.869117 -0.017229 -0.494306 
0.481641 0.0591261 -0.874372 
-0.919189 -0.332127 0.211621 
1 0 0 
1 0 0 
-0.962647 0.155971 -0.221323 