# vtk DataFile Version 2.0
Generated by NetDEM
ASCII 
DATASET POLYDATA
POINTS 768 double
-0.418756 -0.40691 -0.463752 
-0.428692 -0.406961 -0.392658 
-0.446001 -0.206627 -0.450016 
-0.45 -0.246078 -0.358219 
-0.446001 -0.206627 -0.450016 
-0.425182 -0.130205 -0.393957 
-0.412616 -0.00608469 -0.464862 
-0.409425 -0.0182506 -0.385239 
-0.449162 0.113351 -0.45002 
-0.449387 0.176716 -0.372676 
-0.449206 0.349467 -0.450046 
-0.357188 0.373269 -0.406332 
-0.449206 0.349467 -0.450046 
-0.441048 0.275858 -0.38287 
-0.449206 0.349467 -0.450046 
-0.450005 0.383042 -0.355877 
-0.307766 -0.209573 -0.450058 
-0.320102 -0.203231 -0.35107 
-0.195296 -0.00921945 -0.450044 
-0.129682 -0.0555025 -0.390501 
-0.195296 -0.00921945 -0.450044 
-0.177378 0.0789792 -0.450274 
-0.173228 0.172038 -0.463814 
-0.177378 0.0789792 -0.450274 
-0.252963 0.366658 -0.463254 
-0.357188 0.373269 -0.406332 
-0.252963 0.366658 -0.463254 
-0.230548 0.326152 -0.394425 
-0.0558528 -0.396637 -0.460777 
-0.0850151 -0.388567 -0.395497 
-0.055816 -0.0870076 -0.450032 
0.050969 -0.0921318 -0.449981 
-0.055816 -0.0870076 -0.450032 
-0.129682 -0.0555025 -0.390501 
0.0359879 0.178971 -0.45231 
0.0263704 0.259585 -0.449918 
0.0359879 0.178971 -0.45231 
-0.0557474 0.126435 -0.442568 
0.0359879 0.178971 -0.45231 
0.111462 0.137277 -0.398229 
-0.0310118 0.319068 -0.441422 
-0.111068 0.313778 -0.398274 
0.193386 -0.401226 -0.462731 
0.204589 -0.41344 -0.389965 
0.168818 -0.210196 -0.463093 
0.165559 -0.205358 -0.389808 
0.173082 -0.00771258 -0.462778 
0.174735 0.0131602 -0.38536 
0.160386 0.209473 -0.465051 
0.118729 0.30143 -0.42557 
0.301679 0.403765 -0.414053 
0.371122 0.438942 -0.465049 
0.301679 0.403765 -0.414053 
0.330771 0.308107 -0.412557 
0.450016 -0.407732 -0.45005 
0.437001 -0.356117 -0.36543 
0.450016 -0.407732 -0.45005 
0.395446 -0.450031 -0.377759 
0.430818 -0.303177 -0.450019 
0.437001 -0.356117 -0.36543 
0.380565 0.0910713 -0.450042 
0.449988 0.13936 -0.39674 
-0.428692 -0.406961 -0.392658 
-0.332165 -0.407809 -0.401269 
-0.428692 -0.406961 -0.392658 
-0.434733 -0.440316 -0.326348 
-0.409425 -0.0182506 -0.385239 
-0.315918 -0.0231855 -0.358602 
-0.409425 -0.0182506 -0.385239 
-0.45079 -0.0306612 -0.316253 
-0.449387 0.176716 -0.372676 
-0.443792 0.0869818 -0.328905 
-0.332165 -0.407809 -0.401269 
-0.264397 -0.436484 -0.359686 
-0.154285 -0.0987597 -0.203088 
-0.236071 -0.0639332 -0.157287 
-0.154285 -0.0987597 -0.203088 
-0.165715 -0.0718472 -0.298699 
-0.308779 0.157223 -0.4629 
-0.27613 0.0970792 -0.400442 
-0.145806 0.402583 -0.446937 
-0.111068 0.313778 -0.398274 
-0.0850151 -0.388567 -0.395497 
-0.00240927 -0.338537 -0.344763 
-0.0850151 -0.388567 -0.395497 
-0.159626 -0.376339 -0.333251 
0.317557 -0.238182 -0.10457 
0.296598 -0.326746 -0.142136 
0.317557 -0.238182 -0.10457 
0.299345 -0.163268 -0.171222 
-0.031641 -0.0145648 -0.30189 
-0.0068747 -0.0231035 -0.392634 
0.0263704 0.259585 -0.449918 
-0.0368456 0.223025 -0.384998 
0.118729 0.30143 -0.42557 
0.0659649 0.396758 -0.408606 
0.204589 -0.41344 -0.389965 
0.203147 -0.435963 -0.31894 
0.165559 -0.205358 -0.389808 
0.213861 -0.19939 -0.306478 
0.165559 -0.205358 -0.389808 
0.159308 -0.310215 -0.379465 
0.174735 0.0131602 -0.38536 
0.162196 0.0554836 -0.328711 
0.195823 0.112385 -0.456345 
0.273497 0.066362 -0.443885 
0.195823 0.112385 -0.456345 
0.260739 0.176574 -0.444753 
0.195823 0.112385 -0.456345 
0.111462 0.137277 -0.398229 
0.395446 -0.450031 -0.377759 
0.34398 -0.411722 -0.301091 
0.437001 -0.356117 -0.36543 
0.450012 -0.311101 -0.277098 
0.449988 0.13936 -0.39674 
0.450036 0.234044 -0.364709 
0.449988 0.13936 -0.39674 
0.450011 0.0545988 -0.34369 
0.425061 0.33973 -0.456361 
0.437791 0.255053 -0.460032 
0.425061 0.33973 -0.456361 
0.431172 0.367292 -0.376077 
-0.434733 -0.440316 -0.326348 
-0.434543 -0.452816 -0.244011 
-0.320102 -0.203231 -0.35107 
-0.320434 -0.140878 -0.272915 
-0.315918 -0.0231855 -0.358602 
-0.240426 -0.00478632 -0.351458 
-0.29096 0.266843 -0.450018 
-0.329387 0.233364 -0.363991 
-0.441048 0.275858 -0.38287 
-0.422511 0.260303 -0.285865 
-0.441048 0.275858 -0.38287 
-0.423312 0.242153 -0.463962 
-0.182268 -0.37557 -0.450956 
-0.160051 -0.448351 -0.391134 
-0.236071 -0.0639332 -0.157287 
-0.322232 -0.0276072 -0.134109 
0.0437168 -0.438182 -0.449752 
0.095499 -0.452548 -0.355381 
0.0437168 -0.438182 -0.449752 
0.0104392 -0.434088 -0.354358 
0.207899 -0.284429 -0.101221 
0.296598 -0.326746 -0.142136 
0.207899 -0.284429 -0.101221 
0.136625 -0.216825 -0.1199 
0.207899 -0.284429 -0.101221 
0.137071 -0.328539 -0.0434462 
-0.0368456 0.223025 -0.384998 
0.00713911 0.293668 -0.336921 
0.255493 0.331175 -0.463884 
0.330771 0.308107 -0.412557 
0.255493 0.331175 -0.463884 
0.205649 0.384411 -0.393927 
0.203147 -0.435963 -0.31894 
0.263002 -0.44417 -0.238992 
0.203147 -0.435963 -0.31894 
0.095499 -0.452548 -0.355381 
0.050969 -0.0921318 -0.449981 
0.13423 -0.0990739 -0.39809 
0.050969 -0.0921318 -0.449981 
0.0172666 -0.119897 -0.345512 
0.162196 0.0554836 -0.328711 
0.126204 0.0631795 -0.265889 
0.273497 0.066362 -0.443885 
0.323017 0.0638658 -0.372914 
0.111462 0.137277 -0.398229 
0.0502747 0.118623 -0.325897 
0.378818 -0.217174 -0.450047 
0.450012 -0.207797 -0.380492 
0.378818 -0.217174 -0.450047 
0.33651 -0.176614 -0.369053 
0.38157 -0.107897 -0.450044 
0.450009 -0.106159 -0.377182 
0.38157 -0.107897 -0.450044 
0.34834 -0.0765468 -0.361106 
0.450036 0.234044 -0.364709 
0.437791 0.255053 -0.460032 
-0.434543 -0.452816 -0.244011 
-0.390316 -0.438439 -0.168667 
-0.240426 -0.00478632 -0.351458 
-0.286956 0.0851111 -0.294629 
-0.359315 0.14296 -0.333482 
-0.329387 0.233364 -0.363991 
-0.160051 -0.448351 -0.391134 
-0.264397 -0.436484 -0.359686 
-0.129682 -0.0555025 -0.390501 
-0.165715 -0.0718472 -0.298699 
-0.129682 -0.0555025 -0.390501 
-0.0829998 -0.128601 -0.340733 
-0.24359 0.047124 -0.212929 
-0.244853 0.0305139 -0.114346 
-0.24359 0.047124 -0.212929 
-0.286956 0.0851111 -0.294629 
-0.24359 0.047124 -0.212929 
-0.162816 0.114113 -0.243671 
-0.0557474 0.126435 -0.442568 
-0.135463 0.145804 -0.393775 
0.095499 -0.452548 -0.355381 
0.0843307 -0.423478 -0.267675 
0.0207924 0.047609 -0.450073 
0.0320948 0.0431469 -0.354141 
0.0659649 0.396758 -0.408606 
-0.00220292 0.438103 -0.464937 
0.263002 -0.44417 -0.238992 
0.267868 -0.428059 -0.121238 
0.159308 -0.310215 -0.379465 
0.259032 -0.321502 -0.350842 
0.159308 -0.310215 -0.379465 
0.104795 -0.286337 -0.287135 
0.126204 0.0631795 -0.265889 
0.111577 -0.0209886 -0.201405 
0.260739 0.176574 -0.444753 
0.237417 0.232597 -0.377427 
0.260739 0.176574 -0.444753 
0.33148 0.209063 -0.398652 
0.15514 0.450005 -0.450009 
0.205649 0.384411 -0.393927 
0.356323 -0.314933 -0.322984 
0.34398 -0.411722 -0.301091 
0.450009 -0.106159 -0.377182 
0.437585 -0.0372273 -0.305823 
0.450009 -0.106159 -0.377182 
0.450003 -0.144197 -0.284711 
0.431172 0.367292 -0.376077 
0.399183 0.299122 -0.308102 
0.431172 0.367292 -0.376077 
0.438414 0.398878 -0.294305 
-0.390316 -0.438439 -0.168667 
-0.461321 -0.45245 -0.120392 
-0.390316 -0.438439 -0.168667 
-0.371674 -0.363974 -0.113447 
-0.371674 -0.363974 -0.113447 
-0.329998 -0.441015 -0.0342233 
-0.296795 -0.0417293 -0.266764 
-0.354154 0.0112408 -0.227332 
-0.450005 0.383042 -0.355877 
-0.450032 0.353076 -0.260499 
-0.244853 0.0305139 -0.114346 
-0.232792 0.0361175 -0.0152495 
-0.0068747 -0.0231035 -0.392634 
0.0320948 0.0431469 -0.354141 
0.357112 -0.212811 -0.0162947 
0.448889 -0.19645 -0.0524688 
0.357112 -0.212811 -0.0162947 
0.343598 -0.268854 0.065397 
0.0172666 -0.119897 -0.345512 
0.0137266 -0.105056 -0.246688 
0.0320948 0.0431469 -0.354141 
0.0502747 0.118623 -0.325897 
-0.00220292 0.438103 -0.464937 
-0.0062574 0.413998 -0.368481 
0.303046 -0.386755 -0.205412 
0.267868 -0.428059 -0.121238 
0.303046 -0.386755 -0.205412 
0.34398 -0.411722 -0.301091 
0.303046 -0.386755 -0.205412 
0.296598 -0.326746 -0.142136 
0.0431989 0.0714938 -0.252847 
0.00326823 0.112656 -0.183306 
0.237417 0.232597 -0.377427 
0.227214 0.18311 -0.31743 
0.349112 0.449953 -0.260763 
0.249252 0.449897 -0.266043 
0.450012 -0.207797 -0.380492 
0.391958 -0.224095 -0.300724 
-0.461321 -0.45245 -0.120392 
-0.443353 -0.456789 0.000953851 
-0.320434 -0.140878 -0.272915 
-0.320784 -0.126154 -0.174012 
-0.45079 -0.0306612 -0.316253 
-0.44783 -0.0903542 -0.251791 
-0.313856 0.437837 -0.345019 
-0.235182 0.439279 -0.283329 
-0.313856 0.437837 -0.345019 
-0.381452 0.450006 -0.272361 
-0.159626 -0.376339 -0.333251 
-0.218306 -0.353809 -0.231834 
-0.159626 -0.376339 -0.333251 
-0.138125 -0.414403 -0.241348 
-0.0915154 -0.225705 -0.36775 
-0.100158 -0.304995 -0.403588 
-0.135463 0.145804 -0.393775 
-0.193431 0.0776191 -0.337208 
-0.230548 0.326152 -0.394425 
-0.207952 0.274571 -0.326464 
0.298205 -0.321907 -0.0531351 
0.361496 -0.396288 -0.0730949 
0.450074 0.0512372 -0.152103 
0.44731 0.0815023 -0.247357 
0.450074 0.0512372 -0.152103 
0.449359 0.151006 -0.158721 
-0.111068 0.313778 -0.398274 
-0.167554 0.354217 -0.322814 
0.238576 -0.142504 -0.38733 
0.33651 -0.176614 -0.369053 
0.238576 -0.142504 -0.38733 
0.13423 -0.0990739 -0.39809 
0.238576 -0.142504 -0.38733 
0.248352 -0.0676574 -0.340302 
0.111577 -0.0209886 -0.201405 
0.140301 -0.0306359 -0.111793 
0.205649 0.384411 -0.393927 
0.145192 0.450003 -0.348736 
0.33651 -0.176614 -0.369053 
0.391958 -0.224095 -0.300724 
0.438414 0.398878 -0.294305 
0.445923 0.3738 -0.204578 
-0.443353 -0.456789 0.000953851 
-0.426126 -0.395702 0.0959996 
-0.207952 0.274571 -0.326464 
-0.107857 0.276337 -0.315335 
-0.207952 0.274571 -0.326464 
-0.2207 0.214946 -0.247221 
-0.302259 0.361501 -0.139397 
-0.250094 0.374901 -0.0495237 
-0.302259 0.361501 -0.139397 
-0.393901 0.350815 -0.177837 
-0.302259 0.361501 -0.139397 
-0.244133 0.30291 -0.173685 
-0.107857 0.276337 -0.315335 
-0.128707 0.189126 -0.323426 
-0.107857 0.276337 -0.315335 
-0.0373872 0.268512 -0.23439 
-0.00240927 -0.338537 -0.344763 
-0.0421868 -0.391543 -0.286124 
-0.00240927 -0.338537 -0.344763 
-0.0441999 -0.266509 -0.283278 
[...]
POINT_DATA 768
SCALARS id int 1
LOOKUP_TABLE default
0
25
1
26
1
152
2
27
3
28
4
84
4
54
4
104
6
51
7
81
7
58
8
58
9
84
9
134
10
35
12
66
12
81
13
38
13
83
13
69
14
139
15
40
16
41
17
42
18
39
19
24
19
98
20
46
20
45
21
46
23
48
25
30
25
50
27
52
27
127
28
178
30
105
32
57
32
162
33
78
34
139
35
160
35
130
36
240
36
192
37
108
38
63
39
89
40
65
41
216
41
91
42
67
43
68
43
93
43
69
45
120
46
195
48
73
48
148
49
74
49
99
50
75
51
126
52
77
53
154
54
179
54
109
55
80
57
252
60
85
60
185
61
240
61
161
61
340
63
164
64
98
64
144
65
90
65
85
66
166
66
112
67
92
68
172
69
138
71
121
71
146
72
96
72
171
73
74
75
100
77
307
79
154
80
105
81
162
81
106
82
107
82
307
82
208
83
133
85
165
88
113
89
114
90
215
91
116
91
256
92
142
93
118
93
123
94
144
95
120
96
222
96
196
99
173
99
149
100
125
100
101
101
175
102
177
104
329
107
407
108
113
111
246
111
346
112
186
113
138
114
189
115
215
115
120
115
240
117
238
118
168
119
194
121
170
125
150
126
357
127
176
129
282
129
204
130
205
130
230
131
135
133
203
134
153
136
265
137
272
137
248
139
209
141
146
141
166
141
322
142
292
144
169
146
170
149
174
150
350
153
158
153
253
157
309
157
328
157
258
158
183
158
188
160
210
160
206
161
360
161
341
164
188
165
190
167
322
167
192
168
218
168
198
169
214
171
297
172
197
174
224
175
275
175
300
176
277
177
301
179
201
179
279
182
333
182
334
182
309
183
208
183
213
184
259
186
331
188
288
188
212
192
217
192
271
194
319
194
344
195
220
197
297
200
255
201
354
202
253
202
257
204
254
205
255
206
207
207
336
209
234
210
235
212
238
212
287
216
341
218
243
220
245
221
296
222
347
224
249
227
328
227
228
228
257
229
304
230
280
233
253
233
388
234
308
235
260
235
281
238
337
239
264
242
372
243
394
244
394
244
319
245
345
245
265
246
296
248
373
249
274
254
304
257
352
259
333
259
282
261
320
262
289
262
344
264
289
265
320
268
293
271
297
273
298
273
348
274
324
276
281
276
361
276
306
277
375
278
301
278
327
285
310
285
340
286
359
287
338
288
313
292
317
293
343
300
381
308
332
309
404
309
332
309
358
313
338
314
339
317
436
318
374
318
323
323
348
324
424
328
329
334
359
337
432
337
388
339
364
343
362
346
395
346
446
352
428
358
409
360
405
360
436
362
468
363
393
363
463
364
389
372
392
373
422
393
468
395
470
399
448
407
427
409
434
424
449
427
457
442
468
443
498
478
483
50
0
127
0
278
0
329
0
304
0
104
0
26
0
354
0
137
1
324
1
73
1
148
1
20
1
121
1
96
1
296
1
174
1
195
1
196
1
122
1
245
2
75
2
45
2
200
2
319
3
204
3
29
3
94
3
274
3
169
3
239
3
344
3
53
4
17
4
122
4
49
4
47
4
187
4
83
4
0
4
74
4
88
4
22
4
10
4
64
4
114
4
55
4
16
4
24
4
2
4
20
4
72
4
109
4
12
4
8
4
5
4
15
4
38
4
66
4
18
4
71
4
9
4
60
4
21
4
23
4
94
4
68
4
33
4
11
4
29
4
14
4
3
4
147
4
13
4
43
4
1
4
34
4
7
4
4
4
6
4
180
4
CELL_DATA 384
VECTORS force double
11.5592 30.4613 -170.301 
0.0528826 2.55373 -10.2263 
-1.31834 -4.47468 -8.50759 
-0.457078 -10.0741 -84.766 
-3.12917 18.869 -95.706 
8.27783 -41.1879 -63.4588 
9.17867 -63.4413 -108.855 
24.0491 -82.4784 -77.4471 
4.97343 -2.60034 -66.4533 
-42.8319 35.3597 -53.023 
1.08214 -17.3296 -1.82803 
1.09791 17.8826 -12.6411 
38.4005 77.1843 286.246 
123.897 10.4944 302.617 
70.3772 19.1015 -71.6021 
-233.914 26.8909 -143.935 
4.66108 -16.7289 -34.0614 
61.4423 98.3235 -133.593 
165.309 22.5507 -324.581 
110.641 -10.7443 -486.422 
23.2806 21.6788 -44.3169 
21.5112 20.3038 -91.8672 
-9.98388 10.8277 -65.441 
15.9277 -7.41176 -57.274 
-12.543 43.1427 19.4521 
-2.02496 -7.12945 9.49223 
4.39189 2.69186 4.17375 
61.1636 1321.52 232.273 
39.9752 999.224 322.486 
41.7608 825.356 716.585 
42.8893 140.99 260.939 
-10.0658 2.29775 -12.1046 
12.5702 28.2712 -146.869 
-26.8375 -6.42835 -32.9184 
27.2572 10.5042 -47.2368 
-1.5716 10.3016 -12.1702 
-12.6309 3.23383 -0.858838 
-7.25838 3.59084 -1.51139 
-1.12267 -6.71262 31.7234 
-2.16613 2.6015 -8.9182 
13.6652 41.3944 -67.9028 
53.9336 -67.0103 -381.269 
75.5491 29.6959 3.01369 
0.651177 9.13451 -3.5725 
-0.343955 -26.0914 25.2468 
7.44934 12.4977 13.1697 
-30.3628 32.6987 41.9325 
370.614 -243.644 0.106372 
6.06424 3.7574 -66.4354 
-4.83786 1.09015 -44.4479 
-5.19035 14.584 -34.622 
13.5487 -8.99063 -37.7484 
-46.8928 14.8916 -328.273 
-59.4939 -130.505 -314.357 
245.979 -23.4163 -179.233 
139.926 10.8061 -236.473 
4.65699 201.013 -975.728 
-752.198 1184.67 -2452.25 
-201.254 906.504 6.10437 
257.781 -189.34 1818.96 
80.4403 339.82 594.024 
10.6454 28.3312 -115.798 
2.43028 -1.01996 -4.23834 
-15.4495 -7.75994 -15.2502 
3.45745 3.65519 -15.4148 
-1.18417 -12.8852 -17.945 
-3.56285 64.8326 44.9572 
0.987007 1.62115 -10.9236 
-10.5345 4.58666 4.94385 
-3.80806 -0.240455 -44.6308 
-3.14883 -0.680865 -4.43513 
-11.6153 11.8593 11.051 
7.34713 -11.5196 7.4865 
5.01326 4.68639 -6.39261 
0.995608 -14.7532 -54.7792 
-23.0276 5.65306 -4.76075 
-7.18413 9.9058 -21.9482 
-0.500301 0.366884 -10.2185 
1.62045 0.679222 -18.9468 
293.703 -78.7356 -158.703 
233.402 -23.8345 80.2902 
8.85268 -2.14559 -29.9564 
14.2532 -29.7024 10.6318 
51.0253 -29.0011 280.225 
305.628 -205.241 30.685 
591.417 -257.016 43.2654 
-48.9028 -4.96771 -155.685 
20.9148 -12.2193 -58.908 
1280.12 -2143.95 2138.58 
-0.125386 -10.1696 -74.8607 
-5.09318 -8.55619 -14.7899 
-1.70687 -3.62469 2.01583 
9.44172 -1.30398 -5.3889 
23.8066 9.75982 -60.98 
18.7315 5.86322 -11.5465 
-30.2475 -14.0672 -29.345 
9.9512 1.46644 9.84234 
-37.3578 -45.209 77.5944 
-121.252 -49.6558 120.639 
1.90078 -1.21461 -35.0668 
-48.114 -58.7481 -107.691 
411.813 122.395 -534.464 
7.08261 -2.15903 5.24227 
-4.73472 2.75816 -7.25835 
3.22332 -1.22886 -12.0843 
3.23606 6.6402 -16.8697 
169.208 28.4537 237.649 
86.3175 -22.4224 -25.4453 
-17.9662 28.8618 17.0789 
26.5781 8.386 -18.9511 
167.959 -39.8605 28.0806 
188.928 -38.3409 11.269 
3.60164 -110.402 -219.88 
6.28298 -155.711 -346.604 
7.30563 2.25248 -37.7144 
-7.34468 -11.4428 -22.5889 
-3.50299 -3.37608 -10.3963 
23.808 -7.79855 -22.8192 
-14.7964 14.9633 -47.0335 
-4.38536 7.41016 -27.125 
-62.6684 -51.6194 -16.9337 
-6.29861 -2.85013 32.4127 
4.89101 14.8811 -28.4025 
17.6709 7.79283 -20.6684 
51.8572 13.88 109.794 
-1130.21 498.954 -197.975 
-1.0318 -0.994088 -9.12366 
4.23534 3.80747 -45.0437 
13.6077 -26.3751 -41.7607 
6.64328 -4.25457 -12.4085 
-87.7245 -53 -257.992 
172.721 8.33274 -181.059 
-321.405 91.3283 -94.1713 
3.4617 1.31478 -24.2452 
-0.266037 2.53128 10.5853 
-5.29388 28.4926 -42.2416 
-16.8854 2.88664 -16.8445 
22.3772 -3.87274 -27.3596 
34.5137 1.95904 -45.5575 
-8.13574 -6.90249 -88.3869 
0.116105 -1.50681 0.848355 
53.1587 14.6349 -27.1337 
-67.1741 74.4297 -183.765 
-4.39192 2.74223 0.0892236 
2802.86 7.60699 839.952 
3139.2 -306.389 1043.33 
-10.6215 -25.7626 44.6978 
568.547 -737.934 -337.68 
607.851 344.241 447.983 
709.451 -249.835 -18.4414 
-0.842364 2.6572 -24.3081 
8.10694 -10.0552 -23.4677 
-436.912 85.3755 -133.338 
-13.2954 23.7557 32.5224 
-1.35324 -3.70043 -8.99381 
-25.8337 -199.032 176.682 
-69.427 -56.7839 87.1691 
-109.833 56.553 -49.9754 
175.698 -15.8187 3.19275 
12.574 38.2671 31.9909 
-34.4994 287.256 -182.626 
-37.8328 -3.6531 -104.228 
-15.528 54.0809 177.133 
54.2174 62.0124 116.743 
18.5443 -3.52996 -19.4542 
-13.9486 -8.89493 41.6471 
1.6526 -3.17181 -10.5527 
-0.393283 -2.12375 -17.6963 
97.8239 4.72242 60.505 
36.7322 -12.1675 -15.9774 
6.75879 -21.0113 20.0695 
13.8221 4.25308 50.4664 
1.61782 10.0725 -9.38703 
5.16462 2.18815 -30.6633 
-33.5812 4.16248 -50.8954 
12.9121 11.3187 -73.3225 
-0.116152 0.612376 -10.4009 
-3.05644 -2.76774 -5.85287 
-9.50282 30.163 -57.7156 
24.1837 -13.2552 -20.9123 
0.853332 7.20716 -33.8176 
-3.07074 6.14063 -14.6895 
-0.372546 4.78794 -10.7015 
-2.36933 12.2374 3.21529 
16.9619 -104.426 37.8748 
-196.963 -194.587 -47.1352 
-167.768 -223.151 -18.4895 
5.12941 10.024 -13.933 
3.80449 3.44261 -5.57132 
2.40427 -0.334967 -0.437692 
-1.71126 5.79933 -2.95251 
4.87012 6.9717 -32.4596 
-15.8045 -23.7947 27.9302 
-285.697 15.2027 86.917 
-331.716 65.1487 -26.1328 
-70.8976 69.354 509.755 
-3.49152 15.816 -3.06361 
-1.98522 -12.8719 12.1786 
3.51635 4.29142 -13.5943 
-1.44666 -55.2126 56.6246 
4.94314 -15.5637 -23.4662 
16.9726 1.68096 -32.3481 
2.99562 8.69597 -20.3441 
1.15949 -41.4836 -44.0874 
0.372652 0.231629 -5.00309 
205.56 -148.441 61.6437 
0.859841 -50.9484 -181.881 
-2.46605 6.96904 6.53213 
-1.82503 -0.42971 -8.37361 
7.02942 3.39178 -37.1633 
2.24 -12.7928 -10.1046 
36.2138 117.707 -35.3922 
-12.8011 -2.24908 -45.767 
2.68442 -3.44332 -7.12186 
6.1777 -6.924 -36.6451 
35.482 -3.10439 33.8699 
9.41729 -2.16067 4.29585 
9.94752 -65.5167 184.901 
0.709196 -0.64212 7.87236 
0.150136 8.82075 12.6213 
21.4074 -63.9164 33.6764 
13.6037 -0.209968 12.0735 
681.275 -122.264 -501.878 
-18.428 11.7292 14.7879 
68.1526 -74.0926 -165.728 
6.04783 3.7649 -8.88068 
-20.1364 181.66 -369.199 
9.77403 -39.8468 -2.84322 
1.34472 1.74289 1.04964 
1.01469 1.72015 -3.37288 
-36.497 -9.95925 82.2257 
-21.3885 168.998 -133.451 
-2.99183 -41.9902 -21.0123 
-0.402829 -5.44655 -4.34633 
-1467.46 -81.555 -523.116 
-0.896013 -7.11014 -16.6186 
7.95969 -0.91828 -20.4232 
7.41048 -3.15746 -11.9492 
-1.29596 0.0321662 0.536254 
30.4724 7.10073 2.89807 
6.4027 1.63343 7.4258 
-211.213 84.4155 365.522 
-252.382 -218.484 100.602 
-211.488 133.97 402.985 
-4.73513 1.532 -15.261 
-0.438443 0.24134 -1.28157 
-5.64383 -27.0544 26.1837 
32.1315 92.3781 -372.419 
66.5122 71.8028 -149.824 
-2.98184 4.1635 -3.24462 
-106.11 31.1524 134.396 
14.9029 -19.0319 -29.4451 
41.318 1.4142 -57.5915 
-8.65125 33.4635 -43.7758 
-15.0499 10.9984 6.74189 
-8.31394 -1.69198 -6.99413 
-1.8734 -1.76921 6.26854 
-1.67954 -0.246886 0.0158003 
0.107981 0.226348 -0.222156 
-0.143888 -0.872719 -2.97003 
0.0291499 0.691419 -1.62098 
2.85067 3.25515 -15.9066 
-1.55386 -0.214125 1.41244 
-1.15443 -1.11425 -0.30119 
263.868 -137.658 602.561 
78.8937 -61.0672 -15.7524 
230.075 -28.8099 10.7003 
67.768 50.7423 -60.7908 
-0.762409 2.31447 -0.506172 
-7.44713 1.28161 -51.6173 
1.62979 2.40572 -2.51197 
-0.334754 -0.275908 -0.360549 
1.71421 -0.770586 4.81231 
13.4674 19.6108 -24.9808 
27.4991 10.4433 -32.3961 
75.9217 -5.19782 69.5614 
0.942291 0.718913 1.43746 
0.261477 4.50334 -7.38937 
9.93192 -4.39303 10.8597 
-19.1075 3.57473 -51.2233 
-2.04372 -1.1167 1.24227 
-0.980813 14.5194 -17.1804 
0.118536 -2.3802 -7.61268 
5.41761 -1.31927 -6.61754 
7.48242 3.45339 -25.8573 
9.10795 -1.07319 -2.668 
2.59829 -2.51328 -5.11304 
-5.7651 6.2237 0.647505 
-93.3882 -18.2185 102.122 
78.3894 -10.392 -55.837 
-11.666 -0.0178493 -37.0446 
43.1393 1.59775 -35.3468 
-126.043 -109.521 248.083 
8.09828 -32.726 9.87716 
-4.02814 5.40831 -6.31889 
0.0669134 0.071599 -0.0348221 
-4.15505 4.88579 -16.6582 
0.341104 -0.444592 -5.95963 
4.59713 4.43159 -15.1376 
-1.33605 1.46242 -9.97733 
4.35715 3.265 -6.71796 
54.9021 -0.0354193 4.60525 
-4.58278 1.77649 -2.27234 
12.77 -0.591723 -14.6774 
30.5253 -9.45393 -13.1519 
27.3112 -9.88974 9.40729 
66.6464 -2.7777 38.3213 
10.0423 -0.562226 -1.19857 
5.40691 18.6257 38.4153 
0.19308 0.977494 1.7657 
3.93425 2.4728 -3.26796 
1947.96 -1490.35 1649.03 
-56.4657 -0.811757 38.5672 
511.694 -726.357 2236.21 
40.142 -318.458 16.9457 
-24.3982 453.424 146.796 
-251.322 -21.4611 -10.5645 
104.615 -32.4204 -68.8013 
-35.5512 -11.4291 43.6441 
-0.362733 4.09435 6.17433 
-46.021 -76.1898 349.13 
-68.4452 42.1069 -80.6411 
-0.000496837 8.11123e-10 -0.000508142 
-14.5128 -3.24416 15.1221 
14.4444 37.9815 -27.3472 
-186.112 -251.366 192.984 
-3.29231 13.0004 -6.49625 
55.9023 -0.691825 -21.4794 
5.19787 -12.8074 4.38009 
2.13511e-09 -0.00183394 -0.0018756 
0.100581 -4.2619 -0.264531 
0.404832 -11.7047 15.7526 
0.0236985 -7.69635 2.14386 
77.2049 -47.3445 -158.173 
259.402 18.6646 -74.3544 
-3.33117 -3.67674 29.8065 
-18.4254 8.03058 73.9947 
0.00050187 1.75316e-09 13.6122 
149.43 -450.819 699.777 
-1.34982e-14 4.72048e-15 13.6117 
-1.5611e-13 -6.82364e-14 13.6117 
-34.6445 64.191 178.551 
-13.7436 -32.4074 184.615 
-112.826 -260.144 -992.964 
-4.07814 8.91323 50.7343 
1.20215e-14 -6.11722e-15 13.6117 
-45.3226 39.9592 206.849 
0.238132 19.791 49.733 
-87.1652 -36.4734 220.327 
2.55038 0.158007 23.6356 
9.13449 -13.9655 93.8815 
-6.17655 -7.96354 23.67 
9.92579 9.83322 100.544 
-44.3558 109.546 387.853 
-13.6702 3.93627 40.6657 
-0.414345 -2.64547 40.6126 
-80.4202 12.3043 42.5636 
-1.86081 -17.5006 26.4507 
-0.00268116 -0.41233 13.3622 
-25.8815 -29.3017 104.938 
-14.2084 -92.5112 118.458 
-13.3139 -37.3238 5.5851 
-14.3537 39.491 41.434 
16.7678 25.1642 166.263 
-2.76804 -113.305 455.672 
12.6254 -1.04356 63.915 
17.3714 -174.916 297.195 
118.045 100.904 177.253 
0.612106 -1.56181 22.5617 
-90.7395 58.5106 102.7 
2.50794 -2.36141 22.4257 
0.0635669 0.0246873 13.7227 
4.63792e-09 0.00185252 13.6136 
-6.56786 -8.73509 27.0289 
-0.0981881 5.71579 37.4699 
-5.22901e-14 6.83408e-14 13.6117 
5.00764 186.267 -357.373 
-34.2066 -70.5866 -157.034 
0.719285 2.86089 32.4088 
-8.38145 -11.0175 23.9064 
20.8417 -9.84867 69.9271 
-2.99659 17.2448 46.8248 
-4.07409 1.51784 106.627 
-2.37769 2.01724 12.5949 
VECTORS moment double
0 0 0 
0 0 0 
0 0 0 
0 0 0 
0 0 0 
0 0 0 
0 0 0 
0 0 0 
0 0 0 
0 0 0 
0 0 0 
0 0 0 
0 0 0 
0 0 0 
0 0 0 
0 0 0 
0 0 0 
0 0 0 
0 0 0 
0 0 0 
0 0 0 
0 0 0 
0 0 0 
0 0 0 
0 0 0 
0 0 0 
0 0 0 
0 0 0 
0 0 0 
0 0 0 
0 0 0 
0 0 0 
0 0 0 
0 0 0 
0 0 0 
0 0 0 
0 0 0 
0 0 0 
0 0 0 
0 0 0 
0 0 0 
0 0 0 
0 0 0 
0 0 0 
0 0 0 
0 0 0 
0 0 0 
0 0 0 
0 0 0 
0 0 0 
0 0 0 
0 0 0 
0 0 0 
0 0 0 
0 0 0 
0 0 0 
0 0 0 
0 0 0 
0 0 0 
0 0 0 
0 0 0 
0 0 0 
0 0 0 
0 0 0 
0 0 0 
0 0 0 
0 0 0 
0 0 0 
0 0 0 
0 0 0 
0 0 0 
0 0 0 
0 0 0 
0 0 0 
0 0 0 
0 0 0 
0 0 0 
0 0 0 
0 0 0 
0 0 0 
0 0 0 
0 0 0 
0 0 0 
0 0 0 
0 0 0 
0 0 0 
0 0 0 
0 0 0 
0 0 0 
0 0 0 
0 0 0 
0 0 0 
0 0 0 
0 0 0 
0 0 0 
0 0 0 
0 0 0 
0 0 0 
0 0 0 
0 0 0 
0 0 0 
0 0 0 
0 0 0 
0 0 0 
0 0 0 
0 0 0 
0 0 0 
0 0 0 
0 0 0 
0 0 0 
0 0 0 
0 0 0 
0 0 0 
0 0 0 
0 0 0 
0 0 0 
0 0 0 
0 0 0 
0 0 0 
0 0 0 
0 0 0 
0 0 0 
0 0 0 
0 0 0 
0 0 0 
0 0 0 
0 0 0 
0 0 0 
0 0 0 
0 0 0 
0 0 0 
0 0 0 
0 0 0 
0 0 0 
0 0 0 
0 0 0 
0 0 0 
0 0 0 
0 0 0 
0 0 0 
0 0 0 
0 0 0 
0 0 0 
0 0 0 
0 0 0 
0 0 0 
0 0 0 
0 0 0 
0 0 0 
0 0 0 
0 0 0 
0 0 0 
0 0 0 
0 0 0 
0 0 0 
0 0 0 
0 0 0 
0 0 0 
0 0 0 
0 0 0 
0 0 0 
0 0 0 
0 0 0 
0 0 0 
0 0 0 
0 0 0 
0 0 0 
0 0 0 
0 0 0 
0 0 0 
0 0 0 
0 0 0 
0 0 0 
0 0 0 
0 0 0 
0 0 0 
0 0 0 
0 0 0 
0 0 0 
0 0 0 
0 0 0 
0 0 0 
0 0 0 
0 0 0 
0 0 0 
0 0 0 
0 0 0 
0 0 0 
0 0 0 
0 0 0 
0 0 0 
0 0 0 
0 0 0 
0 0 0 
0 0 0 
0 0 0 
0 0 0 
0 0 0 
0 0 0 
0 0 0 
0 0 0 
0 0 0 
0 0 0 
0 0 0 
0 0 0 
0 0 0 
0 0 0 
0 0 0 
0 0 0 
0 0 0 
0 0 0 
0 0 0 
0 0 0 
0 0 0 
0 0 0 
0 0 0 
0 0 0 
0 0 0 
0 0 0 
0 0 0 
0 0 0 
0 0 0 
0 0 0 
0 0 0 
0 0 0 
0 0 0 
0 0 0 
0 0 0 
0 0 0 
0 0 0 
0 0 0 
0 0 0 
0 0 0 
0 0 0 
0 0 0 
0 0 0 
0 0 0 
0 0 0 
0 0 0 
0 0 0 
0 0 0 
0 0 0 
0 0 0 
0 0 0 
0 0 0 
0 0 0 
0 0 0 
0 0 0 
0 0 0 
0 0 0 
0 0 0 
0 0 0 
0 0 0 
0 0 0 
0 0 0 
0 0 0 
0 0 0 
0 0 0 
0 0 0 
0 0 0 
0 0 0 
0 0 0 
0 0 0 
0 0 0 
0 0 0 
0 0 0 
0 0 0 
0 0 0 
0 0 0 
0 0 0 
0 0 0 
0 0 0 
0 0 0 
0 0 0 
0 0 0 
0 0 0 
0 0 0 
0 0 0 
0 0 0 
0 0 0 
0 0 0 
0 0 0 
0 0 0 
0 0 0 
0 0 0 
0 0 0 
0 0 0 
0 0 0 
0 0 0 
0 0 0 
0 0 0 
0 0 0 
0 0 0 
0 0 0 
0 0 0 
0 0 0 
0 0 0 
0 0 0 
0 0 0 
0 0 0 
0 0 0 
0 0 0 
0 0 0 
0 0 0 
0 0 0 
0 0 0 
0 0 0 
0 0 0 
0 0 0 
0 0 0 
0 0 0 
0 0 0 
0 0 0 
0 0 0 
0 0 0 
0 0 0 
0 0 0 
0 0 0 
0 0 0 
0 0 0 
0 0 0 
0 0 0 
0 0 0 
0 0 0 
0 0 0 
0 0 0 
0 0 0 
0 0 0 
0 0 0 
0 0 0 
0 0 0 
0 0 0 
0 0 0 
0 0 0 
0 0 0 
0 0 0 
0 0 0 
0 0 0 
0 0 0 
0 0 0 
0 0 0 
0 0 0 
0 0 0 
0 0 0 
0 0 0 
0 0 0 
0 0 0 
0 0 0 
0 0 0 
0 0 0 
0 0 0 
0 0 0 
0 0 0 
0 0 0 
0 0 0 
0 0 0 
0 0 0 
0 0 0 
0 0 0 
0 0 0 
0 0 0 
0 0 0 
0 0 0 
0 0 0 
0 0 0 
0 0 0 
0 0 0 
0 0 0 
0 0 0 
0 0 0 
0 0 0 
0 0 0 
0 0 0 
0 0 0 
0 0 0 
0 0 0 
0 0 0 
0 0 0 
0 0 0 
0 0 0 
0 0 0 
0 0 0 
0 0 0 
0 0 0 
SCALARS num_collisions int 1
LOOKUP_TABLE default
1 
1 
1 
1 
1 
1 
1 
1 
1 
1 
1 
1 
1 
1 
1 
1 
1 
1 
1 
1 
1 
1 
1 
1 
1 
1 
1 
1 
1 
1 
1 
1 
1 
1 
1 
1 
1 
1 
1 
1 
1 
1 
1 
1 
1 
1 
1 
1 
1 
1 
1 
1 
1 
1 
1 
1 
1 
1 
1 
1 
1 
1 
1 
1 
1 
1 
1 
1 
1 
1 
1 
1 
1 
1 
1 
1 
1 
1 
1 
1 
1 
1 
1 
1 
1 
1 
1 
1 
1 
1 
1 
1 
1 
1 
1 
1 
1 
1 
1 
1 
1 
1 
1 
1 
1 
1 
1 
1 
1 
1 
1 
1 
1 
1 
1 
1 
1 
1 
1 
1 
1 
1 
1 
1 
1 
1 
1 
1 
1 
1 
1 
1 
1 
1 
1 
1 
1 
1 
1 
1 
1 
1 
1 
1 
1 
1 
1 
1 
1 
1 
1 
1 
1 
1 
1 
1 
1 
1 
1 
1 
1 
1 
1 
1 
1 
1 
1 
1 
1 
1 
1 
1 
1 
1 
1 
1 
1 
1 
1 
1 
1 
1 
1 
1 
1 
1 
1 
1 
1 
1 
1 
1 
1 
1 
1 
1 
1 
1 
1 
1 
1 
1 
1 
1 
1 
1 
1 
1 
1 
1 
1 
1 
1 
1 
1 
1 
1 
1 
1 
1 
1 
1 
1 
1 
1 
1 
1 
1 
1 
1 
1 
1 
1 
1 
1 
1 
1 
1 
1 
1 
1 
1 
1 
1 
1 
1 
1 
1 
1 
1 
1 
1 
1 
1 
1 
1 
1 
1 
1 
1 
1 
1 
1 
1 
1 
1 
1 
1 
1 
1 
1 
1 
1 
1 
1 
1 
1 
1 
1 
1 
1 
1 
1 
1 
1 
1 
1 
1 
1 
1 
1 
1 
1 
1 
1 
1 
1 
1 
1 
1 
1 
1 
1 
1 
1 
1 
1 
1 
1 
1 
1 
1 
1 
1 
1 
1 
1 
1 
1 
1 
1 
1 
1 
1 
1 
1 
1 
1 
1 
1 
1 
1 
1 
1 
1 
1 
1 
1 
1 
1 
1 
1 
1 
1 
1 
1 
1 
1 
1 
1 
1 
1 
1 
1 
1 
1 
1 
1 
1 
1 
1 
1 
1 
1 
1 
1 
1 
1 
1 
1 
1 
1 
1 
1 
1 
1 
1 
1 
1 
1 
1 
1 
1 
1 
VECTORS pos double
-0.408966 -0.414688 -0.426484 
-0.448 -0.226345 -0.404114 
-0.437624 -0.164198 -0.424929 
-0.387405 -0.02574 -0.423814 
-0.449274 0.145033 -0.411347 
-0.418376 0.378161 -0.423096 
-0.445127 0.312663 -0.416458 
-0.449605 0.366254 -0.402961 
-0.313932 -0.206395 -0.400565 
-0.162488 -0.0323611 -0.420273 
-0.184032 0.0383498 -0.439566 
-0.181465 0.117351 -0.466111 
-0.300762 0.3626 -0.42801 
-0.222654 0.334038 -0.445953 
-0.0785078 -0.381157 -0.435051 
-0.00605014 -0.0852856 -0.445677 
-0.0927478 -0.0712549 -0.420266 
0.045743 0.227922 -0.461526 
-0.0157119 0.1525 -0.430021 
0.0727213 0.155729 -0.423885 
-0.070813 0.307929 -0.426442 
0.207095 -0.419604 -0.42589 
0.165944 -0.209654 -0.426463 
0.191112 0.0178281 -0.424622 
0.143044 0.251892 -0.445835 
0.333555 0.417829 -0.449912 
0.316225 0.355936 -0.413306 
0.443509 -0.381927 -0.407737 
0.422732 -0.428886 -0.413905 
0.43391 -0.329643 -0.407722 
0.415279 0.115209 -0.423384 
-0.369484 -0.397898 -0.394447 
-0.418528 -0.43298 -0.358447 
-0.348353 -0.0199652 -0.380859 
-0.437974 -0.0276305 -0.359135 
-0.446589 0.131851 -0.350785 
-0.314013 -0.41686 -0.363164 
-0.195181 -0.0813486 -0.180186 
-0.160002 -0.0853015 -0.250895 
-0.292358 0.119447 -0.442109 
-0.139949 0.374911 -0.405376 
-0.0348627 -0.37383 -0.370128 
-0.135567 -0.38174 -0.376935 
0.310807 -0.279759 -0.131498 
0.319025 -0.203107 -0.140156 
-0.0140047 -0.00909532 -0.348351 
-0.00918785 0.247939 -0.409451 
0.0822912 0.346618 -0.40477 
0.198271 -0.430538 -0.358033 
0.183628 -0.192827 -0.344344 
0.159685 -0.269144 -0.409121 
0.171718 0.0381348 -0.358002 
0.23265 0.0945607 -0.440071 
0.227023 0.163299 -0.453729 
0.150096 0.126876 -0.428207 
0.369714 -0.430873 -0.339422 
0.443508 -0.333603 -0.321263 
0.450005 0.186707 -0.380729 
0.450001 0.0969768 -0.370206 
0.407281 0.301667 -0.463711 
0.439774 0.355926 -0.411287 
-0.41502 -0.450484 -0.277662 
-0.320266 -0.172052 -0.311992 
-0.288456 0.0115663 -0.349396 
-0.310171 0.250103 -0.407004 
-0.43178 0.26808 -0.334368 
-0.43745 0.254946 -0.428137 
-0.179839 -0.408823 -0.408315 
-0.284041 -0.0499581 -0.159173 
0.0710149 -0.452998 -0.405273 
0.0402273 -0.446003 -0.402091 
0.247046 -0.30575 -0.123855 
0.172262 -0.250627 -0.110557 
0.177764 -0.303227 -0.0660239 
-0.0125746 0.254779 -0.365488 
0.300964 0.324929 -0.449 
0.224539 0.362957 -0.434941 
0.240578 -0.435233 -0.270218 
0.147624 -0.426423 -0.337391 
0.0964357 -0.0877737 -0.434017 
0.0129747 -0.122473 -0.395259 
0.139383 0.0455385 -0.296132 
0.292714 0.0614621 -0.412592 
0.0820765 0.128035 -0.358861 
0.414414 -0.212484 -0.41527 
0.357665 -0.196895 -0.409551 
0.415788 -0.107027 -0.413613 
0.364956 -0.0922218 -0.405574 
0.445601 0.239356 -0.414208 
-0.407699 -0.436502 -0.201996 
-0.28827 0.0404621 -0.317091 
-0.344349 0.188165 -0.348731 
-0.216925 -0.43285 -0.388697 
-0.147699 -0.0636736 -0.344601 
-0.106341 -0.092051 -0.365616 
-0.244221 0.0388189 -0.163635 
-0.265273 0.0661168 -0.253777 
-0.203375 0.074035 -0.22551 
-0.0800282 0.151377 -0.419674 
0.0825039 -0.43971 -0.309222 
0.0339335 0.0489177 -0.41161 
0.042189 0.424095 -0.445562 