# vtk DataFile Version 2.0
Generated by NetDEM
ASCII 
DATASET POLYDATA
POINTS 56 double
-0.422902 -0.404282 -0.464965 
-0.403559 -0.403412 -0.381862 
-0.41204 -0.00593293 -0.464595 
-0.40401 -0.0040357 -0.385941 
-0.17367 0.197817 -0.460881 
-0.203991 0.196029 -0.386469 
0.186724 -0.403802 -0.464041 
0.197914 -0.402366 -0.382052 
0.175577 -0.211872 -0.462752 
0.196125 -0.203801 -0.381914 
0.173248 -0.00685208 -0.461537 
0.19703 -0.00297827 -0.376473 
-0.41204 -0.00593293 -0.464595 
-0.407129 -0.00399791 -0.500152 
-0.216547 0.385847 -0.449501 
-0.217057 0.409141 -0.500003 
-0.0184773 0.394008 -0.450137 
0.00450705 0.393896 -0.500003 
0.400854 0.394745 -0.442781 
0.390719 0.397284 -0.500003 
0.39661 -0.20339 -0.450007 
0.39661 -0.20339 -0.5 
-0.422902 -0.404282 -0.464965 
-0.404796 -0.442293 -0.500111 
0.396508 0.196508 -0.450007 
0.396508 0.196508 -0.5 
0.175577 -0.211872 -0.462752 
0.213508 -0.199603 -0.50026 
0.00637816 0.192107 -0.445113 
-0.00160651 0.207299 -0.500003 
-0.17367 0.197817 -0.460881 
-0.203294 0.202861 -0.500313 
0.186724 -0.403802 -0.464041 
0.143091 -0.38782 -0.50003 
0.396488 -0.00351175 -0.450007 
0.396488 -0.00351175 -0.5 
-0.403333 -0.203333 -0.450007 
-0.403333 -0.203333 -0.5 
-0.40295 0.19705 -0.450007 
-0.40295 0.19705 -0.5 
-0.402763 0.397237 -0.450007 
-0.402763 0.397237 -0.5 
-0.203538 -0.203538 -0.450007 
-0.203538 -0.203538 -0.5 
-0.203218 -0.00321788 -0.450007 
-0.203218 -0.00321788 -0.5 
-0.00366947 -0.203669 -0.450007 
-0.00366947 -0.203669 -0.5 
-0.00360232 -0.00360232 -0.450007 
-0.00360232 -0.00360232 -0.5 
0.196913 0.396913 -0.450007 
0.196913 0.396913 -0.5 
0.396713 -0.403287 -0.450007 
0.396713 -0.403287 -0.5 
0.173248 -0.00685208 -0.461537 
0.201293 0.00689522 -0.500146 
LINES 28 84
2 0 1
2 2 3
2 4 5
2 6 7
2 8 9
2 10 11
2 12 13
2 14 15
2 16 17
2 18 19
2 20 21
2 22 23
2 24 25
2 26 27
2 28 29
2 30 31
2 32 33
2 34 35
2 36 37
2 38 39
2 40 41
2 42 43
2 44 45
2 46 47
2 48 49
2 50 51
2 52 53
2 54 55
POINT_DATA 56
SCALARS id int 1
LOOKUP_TABLE default
0
25
2
27
8
33
15
40
16
41
17
42
2
4
9
4
14
4
24
4
21
4
0
4
23
4
16
4
13
4
8
4
15
4
22
4
1
4
3
4
4
4
6
4
7
4
11
4
12
4
19
4
20
4
17
4
CELL_DATA 28
VECTORS force double
26.0337 -34.5733 -17.8478 
109.716 1.14431 -249.482 
-140.628 42.584 -681.094 
6.09514 -4.88333 33.3472 
138.132 53.6484 -296.05 
9.34422 -0.198411 66.2849 
390.263 -22.0085 673.675 
-0.183315 -3.64514 10.9867 
-4.04406 0.754804 11.5854 
1.61839 -0.636124 12.8716 
0 0 15.0967 
-55.7345 213.127 217.613 
0 0 21.8724 
-295.658 -81.2015 665.533 
1.29855 -3.14987 12.453 
270.647 140.462 1175.16 
9.83689 -15.789 5.99253 
0 0 13.9774 
0 0 14.9808 
0 0 14.7735 
0 0 14.5021 
0 0 14.2689 
0 0 16.0646 
0 0 14.7997 
0 0 13.9499 
0 0 14.526 
0 0 14.8367 
-58.9276 -21.127 -59.883 
VECTORS moment double
0 0 0 
0 0 0 
0 0 0 
0 0 0 
0 0 0 
0 0 0 
0 0 0 
0 0 0 
0 0 0 
0 0 0 
0 0 0 
0 0 0 
0 0 0 
0 0 0 
0 0 0 
0 0 0 
0 0 0 
0 0 0 
0 0 0 
0 0 0 
0 0 0 
0 0 0 
0 0 0 
0 0 0 
0 0 0 
0 0 0 
0 0 0 
0 0 0 
SCALARS num_collisions int 1
LOOKUP_TABLE default
1 
1 
1 
1 
1 
1 
1 
1 
1 
1 
1 
1 
1 
1 
1 
1 
1 
1 
1 
1 
1 
1 
1 
1 
1 
1 
1 
1 
VECTORS pos double
-0.38678 -0.399362 -0.422619 
-0.37463 -0.0048647 -0.424021 
-0.198713 0.212132 -0.430245 
0.221101 -0.401373 -0.420303 
0.204435 -0.198743 -0.424041 
0.210428 0.00606802 -0.42562 
-0.407129 -0.00399791 -0.500152 
-0.217057 0.409141 -0.500003 
0.00450705 0.393896 -0.500003 
0.390719 0.397284 -0.500003 
0.39661 -0.20339 -0.5 
-0.404796 -0.442293 -0.500111 
0.396508 0.196508 -0.5 
0.213508 -0.199603 -0.50026 
-0.00160651 0.207299 -0.500003 
-0.203294 0.202861 -0.500313 
0.143091 -0.38782 -0.50003 
0.396488 -0.00351175 -0.5 
-0.403333 -0.203333 -0.5 
-0.40295 0.19705 -0.5 
-0.402763 0.397237 -0.5 
-0.203538 -0.203538 -0.5 
-0.203218 -0.00321788 -0.5 
-0.00366947 -0.203669 -0.5 
-0.00360232 -0.00360232 -0.5 
0.196913 0.396913 -0.5 
0.396713 -0.403287 -0.5 
0.201293 0.00689522 -0.500146 
VECTORS dir_n double
-0.185076 0.0611974 -0.980817 
-0.0488369 -0.0428268 -0.997888 
0.452759 0.2146 -0.865423 
0.061707 -0.0241958 0.997801 
-0.424657 0.0550848 -0.903677 
0.369027 0.079968 0.925972 
1.76875e-16 -4.04823e-17 1 
1.43842e-16 -4.18157e-17 1 
-7.8887e-17 1.66119e-16 1 
1.27869e-16 -7.99616e-17 1 
6.62396e-17 0 1 
-8.66551e-17 -7.19053e-18 1 
4.57198e-17 0 1 
-4.29675e-17 5.39408e-17 1 
1.3382e-16 3.49794e-17 1 
-5.5704e-17 8.89375e-17 1 
1.28835e-16 1.37127e-16 1 
7.15441e-17 0 1 
6.67521e-17 0 1 
6.76886e-17 0 1 
6.89556e-17 0 1 
7.00824e-17 0 1 
6.22486e-17 0 1 
6.75692e-17 0 1 
7.16851e-17 0 1 
6.88423e-17 0 1 
6.74006e-17 0 1 
-1.36136e-17 7.86802e-17 -1 
VECTORS dir_s double
0.613748 -0.772281 -0.163997 
0.994117 0.094619 -0.0527132 
-0.857365 -0.161717 -0.488644 
0.700997 -0.710587 -0.0605829 
0.89648 0.164998 -0.411217 
-0.869855 -0.321209 0.374403 
0.998414 -0.0563046 -1.77392e-16 
-0.0502266 -0.998738 -3.91098e-17 
-0.983024 0.183476 -1.92877e-16 
0.930687 -0.365816 -7.59519e-17 
1 0 0 
-0.253 0.967466 -1.61298e-17 
1 0 0 
-0.964293 -0.264839 -2.85965e-17 
0.381136 -0.924519 1.19414e-17 
0.887585 0.460644 9.22878e-18 
0.528792 -0.848751 1.36502e-16 
1 0 0 
1 0 0 
1 0 0 
1 0 0 
1 0 0 
1 0 0 
1 0 0 
1 0 0 
1 0 0 
1 0 0 
-0.941329 -0.337489 1.98062e-18 
