# vtk DataFile Version 2.0
Generated by NetDEM
ASCII 
DATASET POLYDATA
POINTS 950 double
-0.418612 -0.407995 -0.46386 
-0.429566 -0.409421 -0.393501 
-0.448952 -0.1952 -0.450015 
-0.450002 -0.269818 -0.383457 
-0.448952 -0.1952 -0.450015 
-0.422937 -0.114628 -0.404409 
-0.411053 -0.0066956 -0.464367 
-0.370483 0.0675458 -0.407218 
-0.411053 -0.0066956 -0.464367 
-0.409041 -0.0183611 -0.385743 
-0.45001 0.110447 -0.450017 
-0.370483 0.0675458 -0.407218 
-0.438219 0.345827 -0.450046 
-0.355094 0.378279 -0.406759 
-0.438219 0.345827 -0.450046 
-0.450015 0.273632 -0.381931 
-0.271023 -0.429683 -0.459151 
-0.334755 -0.407486 -0.405312 
-0.271023 -0.429683 -0.459151 
-0.264576 -0.438731 -0.36333 
-0.306933 -0.213442 -0.450062 
-0.320735 -0.205803 -0.351358 
-0.306933 -0.213442 -0.450062 
-0.233629 -0.157994 -0.410688 
-0.194616 -0.00953996 -0.450067 
-0.129113 -0.0556726 -0.390278 
-0.194616 -0.00953996 -0.450067 
-0.240974 -0.00467572 -0.352132 
-0.172939 0.172863 -0.463894 
-0.176898 0.0788842 -0.450278 
-0.172939 0.172863 -0.463894 
-0.135738 0.14675 -0.39634 
-0.172939 0.172863 -0.463894 
-0.246827 0.18774 -0.387019 
-0.253751 0.366056 -0.463108 
-0.221501 0.448697 -0.414304 
-0.253751 0.366056 -0.463108 
-0.230258 0.328028 -0.3948 
-0.253751 0.366056 -0.463108 
-0.355094 0.378279 -0.406759 
-0.0561546 -0.396627 -0.460807 
-0.0859894 -0.389491 -0.396001 
-0.144611 -0.134355 -0.450015 
-0.0836651 -0.213628 -0.450013 
-0.0554015 -0.0871543 -0.450026 
0.0513432 -0.0940229 -0.450079 
-0.0554015 -0.0871543 -0.450026 
-0.129113 -0.0556726 -0.390278 
0.0366517 0.179171 -0.452413 
0.0268717 0.259617 -0.450031 
0.0366517 0.179171 -0.452413 
0.112418 0.138428 -0.397998 
-0.0301135 0.319556 -0.441528 
-0.112483 0.313015 -0.400819 
-0.0301135 0.319556 -0.441528 
0.0268717 0.259617 -0.450031 
0.193035 -0.401634 -0.462889 
0.156455 -0.319139 -0.400808 
0.193035 -0.401634 -0.462889 
0.20357 -0.413711 -0.390228 
0.168342 -0.210422 -0.463001 
0.165383 -0.206405 -0.389556 
0.173232 -0.00698579 -0.462529 
0.175044 0.0144422 -0.385486 
0.160805 0.208795 -0.465046 
0.119852 0.301493 -0.426713 
0.299498 0.402854 -0.417022 
0.284598 0.372256 -0.323009 
0.299498 0.402854 -0.417022 
0.371618 0.439151 -0.465079 
0.299498 0.402854 -0.417022 
0.33071 0.307947 -0.412627 
0.450019 -0.408117 -0.450058 
0.43645 -0.356472 -0.365566 
0.450019 -0.408117 -0.450058 
0.390942 -0.450025 -0.381165 
0.430918 -0.303221 -0.450012 
0.43645 -0.356472 -0.365566 
0.380345 0.0897469 -0.450041 
0.449988 0.140086 -0.398961 
0.380345 0.0897469 -0.450041 
0.322963 0.0628887 -0.372688 
0.371618 0.439151 -0.465079 
0.397393 0.450511 -0.370687 
-0.429566 -0.409421 -0.393501 
-0.334755 -0.407486 -0.405312 
-0.429566 -0.409421 -0.393501 
-0.434851 -0.440717 -0.326143 
-0.450002 -0.269818 -0.383457 
-0.415596 -0.335178 -0.31605 
-0.409041 -0.0183611 -0.385743 
-0.314562 -0.0229181 -0.362676 
-0.409041 -0.0183611 -0.385743 
-0.450992 -0.0310242 -0.316652 
-0.449323 0.449819 -0.450033 
-0.449968 0.42823 -0.352413 
-0.233629 -0.157994 -0.410688 
-0.176521 -0.169557 -0.329439 
-0.154564 -0.0987681 -0.20337 
-0.114314 -0.0288495 -0.144294 
-0.154564 -0.0987681 -0.20337 
-0.166288 -0.071526 -0.298836 
-0.154564 -0.0987681 -0.20337 
-0.236743 -0.0605025 -0.161168 
-0.147056 0.403313 -0.447791 
-0.143023 0.441447 -0.339472 
-0.0859894 -0.389491 -0.396001 
-0.00197622 -0.339358 -0.349085 
-0.0859894 -0.389491 -0.396001 
-0.160797 -0.37642 -0.334261 
0.313914 -0.238615 -0.113668 
0.355226 -0.211314 -0.0268375 
0.313914 -0.238615 -0.113668 
0.294577 -0.161344 -0.178116 
-0.0322391 -0.013477 -0.303301 
-0.00723492 -0.0224991 -0.393732 
-0.0322391 -0.013477 -0.303301 
0.00480987 -0.00383974 -0.210922 
0.0268717 0.259617 -0.450031 
-0.0376653 0.222427 -0.387471 
0.119852 0.301493 -0.426713 
0.0668837 0.39735 -0.409042 
0.20357 -0.413711 -0.390228 
0.201615 -0.435486 -0.319167 
0.165383 -0.206405 -0.389556 
0.238022 -0.142305 -0.389316 
0.165383 -0.206405 -0.389556 
0.21685 -0.197614 -0.307699 
0.175044 0.0144422 -0.385486 
0.162176 0.057524 -0.329547 
0.19672 0.112627 -0.455933 
0.273502 0.0657747 -0.443548 
0.19672 0.112627 -0.455933 
0.112418 0.138428 -0.397998 
0.284598 0.372256 -0.323009 
0.197223 0.307389 -0.337296 
0.390942 -0.450025 -0.381165 
0.339763 -0.410236 -0.305056 
0.43645 -0.356472 -0.365566 
0.352395 -0.314547 -0.331224 
0.43645 -0.356472 -0.365566 
0.450008 -0.309862 -0.278147 
0.449988 0.140086 -0.398961 
0.386536 0.165511 -0.325985 
0.424839 0.34025 -0.456372 
0.437684 0.255873 -0.459883 
0.424839 0.34025 -0.456372 
0.433032 0.368989 -0.376188 
-0.434851 -0.440717 -0.326143 
-0.434079 -0.452838 -0.243841 
-0.320735 -0.205803 -0.351358 
-0.319608 -0.13969 -0.276377 
-0.29071 0.267715 -0.450018 
-0.33392 0.233886 -0.366437 
-0.450015 0.273632 -0.381931 
-0.41961 0.260037 -0.287666 
-0.181251 -0.374855 -0.451353 
-0.158767 -0.448134 -0.391766 
0.196063 -0.330032 -0.250808 
0.252007 -0.297591 -0.310421 
-0.176898 0.0788842 -0.450278 
-0.273744 0.0926262 -0.404129 
-0.348129 0.331816 -0.33467 
-0.355094 0.378279 -0.406759 
-0.348129 0.331816 -0.33467 
-0.281566 0.313904 -0.277497 
0.0430389 -0.439232 -0.449541 
0.0943037 -0.452542 -0.35567 
0.0430389 -0.439232 -0.449541 
0.00793954 -0.435342 -0.35505 
0.207845 -0.283349 -0.123463 
0.298266 -0.322318 -0.159441 
0.207845 -0.283349 -0.123463 
0.122608 -0.233265 -0.138454 
0.207845 -0.283349 -0.123463 
0.135252 -0.333481 -0.0688201 
0.208016 0.0656756 -0.195416 
0.181889 0.0416456 -0.110728 
-0.0376653 0.222427 -0.387471 
0.00787205 0.294242 -0.340682 
0.255241 0.33131 -0.463899 
0.33071 0.307947 -0.412627 
0.255241 0.33131 -0.463899 
0.203419 0.384572 -0.39512 
0.201615 -0.435486 -0.319167 
0.0943037 -0.452542 -0.35567 
0.201615 -0.435486 -0.319167 
0.262701 -0.446977 -0.241279 
0.0513432 -0.0940229 -0.450079 
0.134882 -0.0967776 -0.397475 
0.162176 0.057524 -0.329547 
0.125071 0.0639868 -0.266473 
0.273502 0.0657747 -0.443548 
0.322963 0.0628887 -0.372688 
0.112418 0.138428 -0.397998 
0.0493544 0.119736 -0.327322 
0.378692 -0.217694 -0.45006 
0.336156 -0.176575 -0.369486 
0.378692 -0.217694 -0.45006 
0.450022 -0.20899 -0.380569 
0.380998 -0.10849 -0.450045 
0.450007 -0.10689 -0.377728 
0.380998 -0.10849 -0.450045 
0.346489 -0.0752303 -0.362293 
0.450028 0.234005 -0.364512 
0.448484 0.218376 -0.265763 
0.450028 0.234005 -0.364512 
0.437684 0.255873 -0.459883 
-0.434079 -0.452838 -0.243841 
-0.389243 -0.43967 -0.16879 
-0.176521 -0.169557 -0.329439 
-0.116933 -0.204922 -0.257361 
-0.176521 -0.169557 -0.329439 
-0.229341 -0.170999 -0.244548 
-0.240974 -0.00467572 -0.352132 
-0.294483 -0.040643 -0.271184 
-0.240974 -0.00467572 -0.352132 
-0.192794 0.077213 -0.340052 
-0.273744 0.0926262 -0.404129 
-0.370483 0.0675458 -0.407218 
-0.359587 0.140902 -0.340105 
-0.28412 0.088356 -0.300861 
-0.359587 0.140902 -0.340105 
-0.33392 0.233886 -0.366437 
-0.158767 -0.448134 -0.391766 
-0.264576 -0.438731 -0.36333 
-0.129113 -0.0556726 -0.390278 
-0.166288 -0.071526 -0.298836 
-0.241876 0.0481496 -0.219575 
-0.245892 0.0365433 -0.12035 
0.0943037 -0.452542 -0.35567 
0.0800993 -0.415878 -0.27124 
0.449989 -0.332222 -0.0680834 
0.407292 -0.283044 -0.143954 
0.449989 -0.332222 -0.0680834 
0.448169 -0.269913 0.0101023 
0.0197769 0.0477273 -0.450127 
-0.00723492 -0.0224991 -0.393732 
0.0197769 0.0477273 -0.450127 
0.0322768 0.0439207 -0.355011 
0.262701 -0.446977 -0.241279 
0.30303 -0.387841 -0.209168 
0.156455 -0.319139 -0.400808 
0.0999286 -0.287673 -0.303792 
0.156455 -0.319139 -0.400808 
0.0825277 -0.342264 -0.440691 
0.125071 0.0639868 -0.266473 
0.110767 -0.0228319 -0.207271 
0.262532 0.17542 -0.444229 
0.333959 0.208927 -0.399121 
0.262532 0.17542 -0.444229 
0.239703 0.235176 -0.379254 
0.145334 0.45001 -0.45002 
0.142145 0.449504 -0.350082 
0.352395 -0.314547 -0.331224 
0.252007 -0.297591 -0.310421 
0.352395 -0.314547 -0.331224 
0.357973 -0.293298 -0.233672 
0.450007 -0.10689 -0.377728 
0.450007 -0.146768 -0.286035 
0.450007 -0.10689 -0.377728 
0.43761 -0.0366953 -0.307611 
0.386536 0.165511 -0.325985 
0.333959 0.208927 -0.399121 
0.386536 0.165511 -0.325985 
0.371981 0.166637 -0.227084 
0.33071 0.307947 -0.412627 
0.333959 0.208927 -0.399121 
0.433032 0.368989 -0.376188 
0.399873 0.300273 -0.308872 
0.433032 0.368989 -0.376188 
0.439434 0.401198 -0.296295 
-0.389243 -0.43967 -0.16879 
-0.461831 -0.452445 -0.122639 
-0.389243 -0.43967 -0.16879 
-0.368919 -0.362864 -0.116157 
-0.294483 -0.040643 -0.271184 
-0.319608 -0.13969 -0.276377 
-0.294483 -0.040643 -0.271184 
-0.35364 0.0114506 -0.233431 
-0.449968 0.42823 -0.352413 
-0.449532 0.3739 -0.268479 
-0.449968 0.42823 -0.352413 
-0.382501 0.45 -0.281937 
-0.245892 0.0365433 -0.12035 
-0.233529 0.012092 -0.0241914 
0.355226 -0.211314 -0.0268375 
0.335043 -0.16518 0.0595313 
0.355226 -0.211314 -0.0268375 
0.326315 -0.270061 0.048716 
0.355226 -0.211314 -0.0268375 
0.448661 -0.198085 -0.0598634 
0.0237181 -0.118955 -0.347788 
0.0142835 -0.100917 -0.249898 
0.0322768 0.0439207 -0.355011 
0.0493544 0.119736 -0.327322 
-0.00260084 0.437382 -0.464606 
-0.00611543 0.413002 -0.36908 
0.30303 -0.387841 -0.209168 
0.298266 -0.322318 -0.159441 
0.30303 -0.387841 -0.209168 
0.339763 -0.410236 -0.305056 
0.042231 0.0708766 -0.255134 
0.0493544 0.119736 -0.327322 
0.042231 0.0708766 -0.255134 
0.000941311 0.112668 -0.187153 
0.239703 0.235176 -0.379254 
0.229068 0.183636 -0.320182 
0.349285 0.449999 -0.264761 
0.439434 0.401198 -0.296295 
0.349285 0.449999 -0.264761 
0.249474 0.450037 -0.270825 
0.450022 -0.20899 -0.380569 
0.390774 -0.226014 -0.301834 
-0.461831 -0.452445 -0.122639 
-0.443085 -0.456793 -0.00332099 
-0.319608 -0.13969 -0.276377 
-0.338699 -0.219867 -0.219761 
-0.319608 -0.13969 -0.276377 
-0.320368 -0.116664 -0.179096 
-0.450992 -0.0310242 -0.316652 
-0.447878 -0.0976751 -0.257848 
-0.31069 0.445757 -0.351349 
-0.221501 0.448697 -0.414304 
-0.31069 0.445757 -0.351349 
-0.382501 0.45 -0.281937 
-0.160797 -0.37642 -0.334261 
-0.222136 -0.350339 -0.235459 
[...]
POINT_DATA 950
SCALARS id int 1
LOOKUP_TABLE default
0
25
1
26
1
152
2
103
2
27
3
103
4
84
4
54
5
30
5
105
6
51
6
31
7
81
7
77
8
58
8
133
8
128
9
159
9
134
9
84
10
35
11
131
12
66
12
81
13
38
13
69
14
139
14
38
15
91
15
40
16
41
17
42
18
39
19
44
19
24
19
98
20
46
20
45
21
46
23
48
23
172
24
124
25
30
25
50
26
226
27
52
27
127
29
104
31
76
32
237
32
162
32
57
34
184
35
160
35
130
36
111
36
192
37
108
37
312
38
63
39
89
40
65
41
141
41
216
42
67
43
68
43
69
44
143
45
120
46
95
46
195
48
97
49
74
49
99
50
75
51
126
53
154
54
179
55
80
56
241
58
78
59
84
59
283
60
85
60
185
61
240
61
161
61
340
62
417
63
164
64
98
64
144
65
85
65
90
66
166
67
92
68
172
69
138
71
146
71
121
72
96
72
171
73
273
73
74
75
100
76
251
76
151
77
102
77
203
78
103
79
307
79
154
80
105
81
162
82
107
85
165
86
295
86
371
88
108
88
113
90
115
91
256
91
110
92
142
93
123
93
118
94
169
95
241
95
270
96
196
96
222
97
123
97
348
98
123
99
173
99
149
100
125
100
101
102
126
102
177
104
329
104
204
107
407
111
446
111
346
111
246
112
186
113
138
114
189
115
240
115
120
117
138
117
238
118
168
119
149
119
194
121
170
125
150
126
401
126
357
127
176
129
159
129
204
130
205
130
230
132
361
133
183
134
153
136
265
138
163
139
158
141
216
141
146
141
166
141
322
142
292
144
169
148
222
149
174
150
350
153
253
156
315
156
285
156
190
157
258
158
209
161
341
161
360
164
188
165
190
168
198
168
223
168
193
170
271
170
221
171
297
172
197
174
224
177
301
177
252
179
279
179
201
180
250
181
251
182
333
182
334
184
259
186
331
186
411
188
288
188
212
189
239
189
263
192
217
192
271
193
342
194
344
195
221
195
220
197
297
197
272
199
224
200
255
202
257
202
279
202
253
203
208
204
254
205
255
206
207
206
251
207
390
207
336
208
233
209
234
210
235
212
287
212
238
216
241
216
341
217
242
217
396
218
243
219
243
220
245
221
296
221
295
222
347
223
348
224
249
225
300
227
328
228
429
229
429
229
304
231
462
231
337
231
383
232
356
232
456
233
253
234
333
235
260
236
406
236
386
238
437
243
268
243
394
243
294
244
394
244
299
244
444
244
319
245
265
248
373
248
348
249
274
251
331
252
357
260
285
261
320
261
445
262
344
263
264
265
320
266
271
268
293
273
298
274
324
275
400
276
280
276
361
276
306
277
375
278
301
278
327
280
305
285
310
287
338
288
313
289
314
290
315
292
317
292
417
296
366
298
398
299
419
300
381
301
377
302
326
305
355
305
306
306
406
308
332
309
332
310
335
311
351
314
339
315
435
316
422
316
321
316
472
318
374
321
497
323
348
326
401
326
375
327
353
331
405
337
388
337
432
338
442
338
463
339
469
342
387
343
374
346
416
350
425
353
452
354
453
356
357
358
409
360
436
361
405
363
393
368
393
369
463
373
422
373
397
377
382
377
402
380
381
386
461
389
469
392
417
393
418
393
468
395
415
395
470
397
423
397
398
399
474
399
448
407
457
408
433
409
434
412
482
414
463
416
446
416
466
423
448
432
487
435
490
438
462
444
469
444
494
445
470
451
452
454
479
456
480
460
490
462
482
470
495
491
495
304
0
354
0
454
0
127
0
26
0
351
0
3
0
278
0
54
0
148
1
73
1
20
1
316
1
121
1
96
1
261
1
195
1
196
1
122
1
248
1
298
1
399
1
245
2
75
2
80
2
280
2
415
2
445
2
90
2
45
2
156
2
419
3
94
3
274
3
159
3
239
3
194
3
304
3
53
4
17
4
122
4
49
4
47
4
180
4
83
4
0
4
74
4
88
4
71
4
10
4
64
4
114
4
55
4
16
4
24
4
2
4
20
4
72
4
109
4
12
4
8
4
5
4
15
4
38
4
66
4
18
4
70
4
9
4
60
4
3
4
187
4
21
4
68
4
131
4
11
4
4
4
14
4
6
4
147
4
13
4
43
4
135
4
23
4
33
4
110
4
87
4
22
4
29
4
1
4
94
4
7
4
CELL_DATA 475
VECTORS force double
149.839 -198.127 471.111 
-0.83484 5.01557 -9.1595 
-0.777587 -3.18141 -6.80854 
-713.499 1634.92 941.498 
-292.334 1072.19 2137.8 
-187.137 862.905 631.926 
-15.2785 42.3965 153.316 
-22.9864 -4.41171 306.053 
239.777 -37.583 43.3336 
287.745 -69.3938 95.3592 
5.78888 -6.71928 -77.8264 
-10.7566 -3.42479 -17.6102 
-609.611 284.622 749.827 
-551.118 372.662 256.698 
-24.4643 33.6526 -29.2216 
-22.3313 -3.90424 -20.1047 
-8.74568 4.40993 -14.5134 
-29.5808 -31.0118 -15.6028 
-36.927 21.0084 -86.9127 
-41.7938 -30.0301 -41.5437 
128.248 21.3023 -144.781 
-4.13817 9.15176 8.42759 
-231.949 115.303 322.324 
-466.348 178.802 2.11779 
33.1955 -113.594 80.0906 
-121.153 19.2064 360.665 
30.1522 -10.8001 -56.8832 
0.36232 -26.4571 -2.51347 
2.43586 -1.7021 -7.37327 
10.9395 -1.87144 -84.4892 
-13.4935 -13.9207 -50.7557 
18.4671 -13.975 -55.4073 
0.165495 -8.52972 -12.0559 
483.745 132.408 -322.924 
13.2685 114.829 -530.11 
5.35669 47.1382 -17.641 
-295.695 822.851 227.042 
-254.435 570.773 195.129 
-124.318 520.115 499.358 
-185.698 -14.4741 217.391 
-235.326 -36.9926 -98.6176 
91.3331 -28.4686 142.197 
-20.5797 212.85 -672.212 
282.969 241.474 -833.986 
-2.67474 4.75126 -6.4419 
80.6764 -359.223 -949.222 
472.094 -122.465 -814.321 
-257.556 -9.09283 -510.894 
-24.6671 -0.436728 -48.3447 
-42.3423 111.042 -381.422 
129.007 -103.343 -350.703 
17.7121 91.4141 -343.883 
1.03245 -1.91567 -8.74253 
108.29 -41.534 -297.218 
119.252 36.2143 314.89 
-26.3376 -6.63907 -83.1651 
54.7545 -69.2565 0.41453 
19.0301 -39.1727 77.2469 
-7.15274 -1.75253 1.73846 
12.012 -1.91507 -54.2155 
4.38039 -6.3106 -0.407187 
41.4541 13.4299 13.391 
-30.3616 10.5498 16.505 
4.9368 17.9507 -26.7207 
15.8269 -9.89513 -42.4403 
68.3151 -6.3875 401.613 
-129.043 -38.3274 182.842 
-187.662 15.0109 261.026 
150.069 39.7499 -192.856 
125.206 -127.586 -323.791 
-54.623 -59.3848 -846.864 
58.2925 -82.4648 -308.332 
-1.71332 -22.7228 -141.809 
34.2787 -71.3015 -287.885 
-143.66 -137.049 518.396 
10.4483 -3.48104 -96.8378 
9.80601 9.50734 -26.9725 
-327.84 356.172 -432.84 
-9.02551 50.9545 -122.848 
-0.551751 -2.59936 2.68341 
110.349 -15.2124 -19.8322 
42.2042 -2.26124 33.0678 
1.46422 -7.62781 1.47697 
-712.506 -256.734 279.726 
-641.329 -154.978 -67.7233 
-11.7564 3.79447 14.1358 
6.24527 -12.0517 12.5125 
15.2604 11.7025 -17.3503 
8.34389 6.73511 -22.2182 
-0.879054 -9.16831 -15.6747 
16.2592 143.538 -358.958 
188.062 15.0484 -142.582 
-123.715 -56.0392 -162.899 
-152.509 -18.0701 -95.459 
10.7999 21.0753 21.5068 
10.3879 1.3109 -34.6768 
-244.396 5.82513 -88.4547 
70.8628 101.509 -525.6 
-286.906 -57.3453 155.446 
-299.896 -34.0763 781.238 
-21.8418 -1.43714 -50.619 
5.67826 -4.44198 -24.0949 
8.1675 5.69111 -33.5655 
3.64182 47.0218 -11.2459 
208.907 -22.5234 -615.506 
73.5325 4.5982 -45.1315 
65.1409 -13.4426 8.26638 
237.663 33.2447 -423.876 
240.855 -164.697 -233.639 
-80.5565 186.873 140.252 
-7.53973 18.2677 -7.74907 
-6.73071 -14.3424 13.0305 
199.984 -90.1916 198.889 
-98.6059 139.134 -549.518 
-4.14215 -2.93269 -60.35 
30.3275 103.595 -140.947 
4.64869 -2.78128 10.5091 
-1.29868 -3.98213 -9.84235 
122.631 106.447 215.699 
175.629 195.864 134.42 
25.3232 0.1316 69.8753 
-0.768401 -3.52404 -9.19799 
5.15006 3.00326 13.7825 
2.08126 10.5806 -26.9995 
-515.916 96.3128 52.8655 
-1010.81 -230.84 -1780.11 
-20.222 135.6 -91.6719 
0.326764 0.870734 -1.99824 
-0.479265 0.216352 -1.30548 
-10.2977 3.53257 -20.0519 
2.61223 -10.8494 -22.0207 
-100.86 -132.785 403.156 
348.013 -213.975 713.633 
-26.758 -12.3295 296.626 
-57.2152 75.5838 111.284 
-90.1143 89.3957 120.278 
-27.5852 24.9279 367.248 
38.3553 10.9491 154.578 
-61.9245 -55.3496 120.541 
-243.838 -56.5042 510.478 
-618.48 -229.47 287.165 
-731.874 -310.136 855.689 
-2.75519 4.28911 -23.8356 
4.56432 -12.164 -23.4027 
-11.5986 -1.18481 1.19734 
-10.4145 2.83628 -4.89081 
3.88845 -3.03205 -25.3035 
-93.2514 -57.8428 -463.119 
-32.6548 11.8017 -67.357 
16.5173 -32.4968 -50.5398 
-16.7431 -14.8277 -55.8364 
23.819 -36.2507 -275.852 
-0.105894 14.5644 -217.484 
500.88 -141.771 1292.6 
-139.632 12.669 224.925 
-108.469 59.0242 79.3595 
-185.138 -162.934 -1157.95 
93.1517 -13.299 -124.833 
19.3594 89.8086 11.7727 
16.0238 76.5077 -69.0705 
-100.223 23.7991 260.892 
-83.3916 -3.51345 88.2458 
-553.795 -224.865 -6.94762 
127.269 -81.2603 -170.186 
-10.1892 -82.5596 -400.545 
-5.97748 17.539 15.7503 
-9.11784 -4.72071 -14.5654 
-12.218 60.1979 -127.619 
-19.835 3.9417 -2.32769 
11.5943 -15.622 140.04 
67.9885 165.213 34.2915 
-25.5489 41.9733 46.4955 
-111.658 109.319 127.455 
21.0527 -45.3185 -39.6545 
-31.8152 6.43231 -20.7244 
-11.2845 4.10717 -50.0172 
-16.6553 87.0264 -29.4192 
7.76052 11.7268 -9.7402 
31.8611 56.4354 -208.655 
6.85134 -8.97667 18.4121 
-63.8107 -27.3606 143.191 
-17.9698 -7.05888 -39.4593 
11.1488 -1.58791 -2.51525 
11.6615 -1.6597 58.7187 
-0.322227 0.37542 0.417248 
-143.331 -344.96 -230.096 
-19.305 -11.2162 31.9597 
2.78224 -22.801 -33.608 
-4.60328 -9.20049 -4.21327 
-15.8025 13.2004 -6.18267 
-105.486 -10.3662 -588.594 
-149.115 118.901 -1303.49 
387.67 10.9018 -1042.6 
-392.223 -180.069 676.381 
-512.517 -259.682 952.269 
0.0697867 -11.3591 -16.3109 
9.36492 -11.1786 75.9654 
41.0307 -138.237 173.518 
401.009 -284.681 -230.213 
344.398 -140.713 -315.557 
123.605 62.4714 603.47 
-25.5901 166.481 315.721 
1.04226 -1.41342 -7.89073 
30.8355 -20.4886 6.82445 
-59.0348 -100.402 -141.707 
4.11664 -35.0544 -83.7509 
-1.30972 -0.642429 -7.09111 
3.14422 -0.364895 -23.0775 
-1.58802 -5.13644 -12.9963 
-2.03314 0.526508 -9.52117 
10.8942 -32.745 12.7649 
-21.9497 10.3141 1.59292 
-11.5625 7.1171 -21.5395 
-81.2692 22.2134 57.1585 
-143.671 226.628 337.403 
-158.401 -591.898 143.116 
117.323 42.3305 -3.94048 
-438.203 -49.6528 693.566 
-214.5 -77.8389 415.013 
-1.39109 7.27628 -31.8683 
-4.85739 -0.230419 -28.5675 
50.1581 -58.5362 2.22669 
-13.934 -8.17369 34.9049 
49.0276 -67.1688 109.995 
401.046 -157.499 241.242 
292.743 -197.125 380.577 
-63.112 120.205 68.0362 
-97.2744 -52.9417 -665.948 
-41.7565 19.8716 11.2272 
12.4248 -0.227841 -32.6759 
85.8976 -18.5187 11.3094 
-10.9513 -3.36782 -39.3339 
2.45192 5.90972 -12.6783 
-164.638 91.3145 -161.098 
160.279 475.24 172.232 
-13.1112 -4.17481 -28.6317 
-27.5262 -42.4651 -126.261 
-13.1366 4.1534 -54.2868 
-3.04814 -16.7464 -14.4605 
14.3459 3.52794 -42.661 
-16.5048 6.05826 -16.2727 
12.5022 -10.3034 -11.6811 
64.3753 -61.6281 -116.1 
1.24678 0.678134 -0.541386 
39.5878 123.461 -63.225 
-87.9335 -121.319 -251.283 
-26.3548 57.7709 -446.347 
5.72734 -0.695217 -21.3605 
492.656 -286.465 643.001 
32.1242 9.48147 -151.395 
-0.00320569 -4.89522 -14.1529 
1.361 -0.494541 -4.07174 
-24.4088 26.3139 22.3904 
4.33965 -34.6394 180.398 
184.054 -301.315 260.004 
9.91297 13.8473 -36.4233 
-4.3961 -6.79498 24.3836 
-4.89413 8.62666 5.35556 
2.96739 -2.20837 9.84534 
1.306 0.951223 5.7129 
324.409 -225.789 121.47 
48.9189 -153.715 -283.272 
-13.2499 2.39792 -40.2943 
-10.0821 3.95674 1.32663 
-35.9658 -62.2821 50.2713 
-0.0526308 -17.6833 34.5633 
3.60827 17.21 1.77876 
-3.63138 -16.7475 -4.06544 
3.98455 7.69116 -3.46517 
4.91947 20.0828 13.4821 
4.50131 -0.84263 -1.74333 
30.7793 10.2872 -74.4954 
-37.7507 -12.5555 41.5262 
-6.3924 -42.7688 -12.7411 
295.212 81.1329 684.56 
292.711 -42.1108 918.95 
-1.32174 31.9336 49.6534 
-32.8062 6.96973 -32.3055 
-35.6018 63.8776 27.6146 
-12.4791 5.03483 -29.9044 
19.9645 6.09783 20.2697 
6.7078 -3.14118 -19.6761 
13.1005 -4.59847 -20.3147 
-5.34845 1.57734 -4.75708 
-12.8955 -1.60265 -17.6706 
-28.6944 143.011 89.3985 
-1.84818 -3.0748 -2.55032 
3.14626 -29.4143 -16.5114 
-0.636265 -32.3766 -5.96803 
-0.00785761 0.0926139 0.205525 
278.522 -405.515 689.977 
2.95227 -33.4763 -171.881 
118.401 310.11 -83.8346 
-2.07975 7.18887 -3.75646 
183.122 -40.2462 -55.4165 
35.8465 -2.16411 -84.9343 
-58.0645 1004.16 225.354 
13.5826 3.39163 -27.9859 
81.5818 1.67712 143.691 
-1.89607 0.130836 -15.0239 
-1.38304 0.0787512 -1.97811 
-1.13875 -0.302806 1.75002 
6.3388 5.62803 -21.209 
-17.2114 -7.40747 -10.1081 
-4.46424 25.7442 -26.1871 
-2.46868 26.0626 39.9598 
0.985214 -0.760102 -3.37084 
-1.69734 -4.09646 -7.54907 
-66.2784 -3.75332 31.2976 
-1.3473 -2.57061 1.82088 
136.642 -10.9663 -266.197 
176.267 -48.2799 -507.884 
19.8148 8.36848 -83.7545 
7.28036 -1.16854 -4.46984 
-1.88182 2.38648 -0.171986 
9.10636 3.3748 -10.0848 
1.6273 0.943814 -2.21157 
-2.60914 -0.699415 -4.50657 
-13.4834 -4.98025 -28.3909 
38.8889 244.301 -324.692 
5.9144 207.579 -130.29 
31.6805 196.487 -143.695 
0.613021 -0.446376 2.97285 
-0.308153 -31.1332 -12.0128 
28.0332 -36.9159 358.214 
-12.6314 -13.2557 21.5132 
3.36946 -5.75732 -0.00332397 
-14.5886 44.4762 -93.771 
3.56297 11.0556 -24.6229 
5.6423 -7.34394 1.5707 
-8.27962 -0.863369 -8.72705 
41.2186 -170.615 -164.74 
50.5511 -115.547 202.743 
-8.82241 0.531403 -8.02789 
91.6208 -97.5376 -133.094 
0.202474 0.75687 -0.80843 
-11.2106 5.73093 23.8605 
-2.68579 1.41909 -10.7013 
-13.3669 21.9289 -69.5359 
-1.29602 3.94666 -17.1215 
10.4678 -16.978 23.0008 
-0.282209 1.22488 4.88029 
-16.6589 -32.9839 -46.2626 
2.52903 8.29528 -19.4404 
-1.21135 4.2073 3.54641 
-1.46893 -12.7279 -25.7424 
84.6545 68.2324 58.3975 
24.8473 625.181 -362.723 
-37.4572 464.788 -681.793 
-9.72057 -7.09605 -12.9873 
1.82952 -9.861 -17.0957 
0.367683 1.33344 1.95533 
13.3168 47.0343 -47.5197 
-7.67389 -0.116496 19.4225 
9.4864 1.85309 14.1707 
-0.643196 -1.85219 -11.5782 
-2.40018 -6.51298 -2.24709 
-2.43204 0.355571 -2.84812 
-0.906954 8.02522 7.04026 
-41.7632 145.254 313.014 
51.7526 -400.593 119.341 
-0.87786 -3.29014 -5.5703 
-0.825666 5.42568 7.81234 
-3.69851 0.350032 -12.2046 
0.27244 0.269007 0.300713 
0.664354 -0.116126 -0.573138 
-1.03728 -4.38551 11.3434 
30.7372 -10.286 94.9674 
9.60221 8.22915 -10.6865 
-49.2666 -10.9097 40.6188 
-18.065 15.4432 -117.863 
-0.927692 2.45734 -8.71248 
-2.01196 -0.628101 -12.2253 
-4.91094 -4.94679 1.52121 
21.564 -3.60503 -15.543 
-6.66912 27.2754 -66.5655 
4.51434 -42.4185 -38.1077 
9.58651 -4.55609 33.6916 
-0.846053 -0.0145856 0.456484 
1.36651 -1.02213 1.08226 
-1.04549 0.964048 0.781568 
0.528472 17.7316 -20.7154 
1.74022 -1.50055 -15.7271 
-0.756586 -1.05233 3.83794 
-16.8909 165.228 -274.853 
2.37157 -0.447632 -0.54942 
-1.10309 0.248127 6.28799 
-154.603 14.7723 292.432 
2.93986 -0.631211 3.48258 
7.88352 0.613569 1.48816 
34.3402 35.0028 -35.9547 
115.802 -88.7951 29.44 
-70.5355 115.002 -296.194 
-12.0758 -5.72862 18.1857 
-26.1508 16.6801 -1.96018 
-249.434 296.517 335.903 
4.93029 -14.2587 -53.6529 
-20.6596 -20.6882 6.27324 
-13.1711 5.56917 7.0038 
-29.3119 -9.71141 8.34212 
-228.724 86.5379 605.889 
-9.98099 3.71878 -8.17186 
-2.38588e-09 3.36796e-15 -2.38555e-09 
133.459 43.6367 110.862 
-13.4384 34.6267 4.63695 
1.60394 2.84805 3.67018 
-21.6217 -24.2461 18.7174 
99.545 91.4815 -308.235 
94.9136 -22.9429 61.1989 
165.184 957.694 779.739 
1.23135 -0.637629 4.03083 
0.220012 43.3384 26.9522 
-19.4318 33.2354 -0.827532 
-59.5649 -112.195 95.7146 
-4.28214 8.55344 -2.40509 
-1.0501 -2.21831 8.56369 
-3.58451 8.15692 -127.175 
-2.27428 -29.1181 31.3936 
-5.22719 -10.5053 16.2237 
10.801 -33.2819 -18.3835 
114.709 -41.5256 3.62576 
-0.764385 153.296 -278.11 
-6.44277 -3.51363 39.7974 
-19.1492 16.2351 72.4379 
2.38588e-09 -9.73819e-16 13.6117 
-43.1153 -13.4649 -88.8873 
-6.67749e-15 8.78598e-15 13.6117 
-2.44789 7.00369 23.5244 
4.68395 -2.98992 9.15849 
-0.420135 -0.928958 370.498 
-3.49966 75.3371 106.39 
-14.8173 -45.4603 256.562 
173.911 85.3523 502.916 
11.966 39.3065 245.23 
-23.3459 7.10879 -213.231 
10.3324 -11.7975 45.328 
0.99882 22.7866 -16.5774 
11.318 12.5045 67.1952 
-121.103 -194.287 407.42 
476.95 49.7893 2635.84 
-22.111 102.665 410.071 
15.8494 4.64288 92.0439 
2.80135 -1.06934 12.1126 
50.7452 80.2909 188.667 
-35.1654 -28.3255 64.423 
13.5671 8.15617 124.974 
-17.5784 4.78895 101.071 
-12.8552 49.4264 44.2782 
191.615 -56.7388 2.51868 
3.67012 8.56882 20.9866 
-3.43067e-15 -2.08739e-14 13.6117 
9.03417 4.87129 168.238 
174.469 -106.759 456.886 
198.091 22.5585 241.837 
4.18988e-07 -1.08771e-07 13.6117 
11.308 -116.003 195.571 
56.3023 -57.9306 -15.2066 
-4.57949 11.7438 24.3519 
-2.56475 4.40559 23.1431 
20.8855 -67.3325 279.525 
-21.3433 -13.2834 26.4535 
3.12408 9.66362 114.581 
0.0283142 0.0672228 13.8103 
124.667 -124.808 285.652 
218.357 304.018 921.584 
1.00312 -1.86182 12.8803 
82.834 69.9171 145.938 
0.623165 0.0657005 13.5687 
7.43432 3.96654 27.597 
0.000561295 -0.000745598 13.6078 
0.0711137 0.0422395 13.4562 
9.96483 32.1156 -93.5778 
1.07284 -0.00744095 29.189 
1.16799 -38.1643 -31.7537 
139.733 -87.9114 534.933 
VECTORS moment double
0 0 0 
0 0 0 
0 0 0 
0 0 0 
0 0 0 
0 0 0 
0 0 0 
0 0 0 
0 0 0 
0 0 0 
0 0 0 
0 0 0 
0 0 0 
0 0 0 
0 0 0 
0 0 0 
0 0 0 
0 0 0 
0 0 0 
0 0 0 
0 0 0 
0 0 0 
0 0 0 
0 0 0 
0 0 0 
0 0 0 
0 0 0 
0 0 0 
0 0 0 
0 0 0 
0 0 0 
0 0 0 
0 0 0 
0 0 0 
0 0 0 
0 0 0 
0 0 0 
0 0 0 
0 0 0 
0 0 0 
0 0 0 
0 0 0 
0 0 0 
0 0 0 
0 0 0 
0 0 0 
0 0 0 
0 0 0 
0 0 0 
0 0 0 
0 0 0 
0 0 0 
0 0 0 
0 0 0 
0 0 0 
0 0 0 
0 0 0 
0 0 0 
0 0 0 
0 0 0 
0 0 0 
0 0 0 
0 0 0 
0 0 0 
0 0 0 
0 0 0 
0 0 0 
0 0 0 
0 0 0 
0 0 0 
0 0 0 
0 0 0 
0 0 0 
0 0 0 
0 0 0 
0 0 0 
0 0 0 
0 0 0 
0 0 0 
0 0 0 
0 0 0 
0 0 0 
0 0 0 
0 0 0 
0 0 0 
0 0 0 
0 0 0 
0 0 0 
0 0 0 
0 0 0 
0 0 0 
0 0 0 
0 0 0 
0 0 0 
0 0 0 
0 0 0 
0 0 0 
0 0 0 
0 0 0 
0 0 0 
0 0 0 
0 0 0 
0 0 0 
0 0 0 
0 0 0 
0 0 0 
0 0 0 
0 0 0 
0 0 0 
0 0 0 
0 0 0 
0 0 0 
0 0 0 
0 0 0 
0 0 0 
0 0 0 
0 0 0 
0 0 0 
0 0 0 
0 0 0 
0 0 0 
0 0 0 
0 0 0 
0 0 0 
0 0 0 
0 0 0 
0 0 0 
0 0 0 
0 0 0 
0 0 0 
0 0 0 
0 0 0 
0 0 0 
0 0 0 
0 0 0 
0 0 0 
0 0 0 
0 0 0 
0 0 0 
0 0 0 
0 0 0 
0 0 0 
0 0 0 
0 0 0 
0 0 0 
0 0 0 
0 0 0 
0 0 0 
0 0 0 
0 0 0 
0 0 0 
0 0 0 
0 0 0 
0 0 0 
0 0 0 
0 0 0 
0 0 0 
0 0 0 
0 0 0 
0 0 0 
0 0 0 
0 0 0 
0 0 0 
0 0 0 
0 0 0 
0 0 0 
0 0 0 
0 0 0 
0 0 0 
0 0 0 
0 0 0 
0 0 0 
0 0 0 
0 0 0 
0 0 0 
0 0 0 
0 0 0 
0 0 0 
0 0 0 
0 0 0 
0 0 0 
0 0 0 
0 0 0 
0 0 0 
0 0 0 
0 0 0 
0 0 0 
0 0 0 
0 0 0 
0 0 0 
0 0 0 
0 0 0 
0 0 0 
0 0 0 
0 0 0 
0 0 0 
0 0 0 
0 0 0 
0 0 0 
0 0 0 
0 0 0 
0 0 0 
0 0 0 
0 0 0 
0 0 0 
0 0 0 
0 0 0 
0 0 0 
0 0 0 
0 0 0 
0 0 0 
0 0 0 
0 0 0 
0 0 0 
0 0 0 
0 0 0 
0 0 0 
0 0 0 
0 0 0 
0 0 0 
0 0 0 
0 0 0 
0 0 0 
0 0 0 
0 0 0 
0 0 0 
0 0 0 
0 0 0 
0 0 0 
0 0 0 
0 0 0 
0 0 0 
0 0 0 
0 0 0 
0 0 0 
0 0 0 
0 0 0 
0 0 0 
0 0 0 
0 0 0 
0 0 0 
0 0 0 
0 0 0 
0 0 0 
0 0 0 
0 0 0 
0 0 0 
0 0 0 
0 0 0 
0 0 0 
0 0 0 
0 0 0 
0 0 0 
0 0 0 
0 0 0 
0 0 0 
0 0 0 
0 0 0 
0 0 0 
0 0 0 
0 0 0 
0 0 0 
0 0 0 
0 0 0 
0 0 0 
0 0 0 
0 0 0 
0 0 0 
0 0 0 
0 0 0 
0 0 0 
0 0 0 
0 0 0 
0 0 0 
0 0 0 
0 0 0 
0 0 0 
0 0 0 
0 0 0 
0 0 0 
0 0 0 
0 0 0 
0 0 0 
0 0 0 
0 0 0 
0 0 0 
0 0 0 
0 0 0 
0 0 0 
0 0 0 
0 0 0 
0 0 0 
0 0 0 
0 0 0 
0 0 0 
0 0 0 
0 0 0 
0 0 0 
0 0 0 
0 0 0 
0 0 0 
0 0 0 
0 0 0 
0 0 0 
0 0 0 
0 0 0 
0 0 0 
0 0 0 
0 0 0 
0 0 0 
0 0 0 
0 0 0 
0 0 0 
0 0 0 
0 0 0 
0 0 0 
0 0 0 
0 0 0 
0 0 0 
0 0 0 
0 0 0 
0 0 0 
0 0 0 
0 0 0 
0 0 0 
0 0 0 
0 0 0 
0 0 0 
0 0 0 
0 0 0 
0 0 0 
0 0 0 
0 0 0 
0 0 0 
0 0 0 
0 0 0 
0 0 0 
0 0 0 
0 0 0 
0 0 0 
0 0 0 
0 0 0 
0 0 0 
0 0 0 
0 0 0 
0 0 0 
0 0 0 
0 0 0 
0 0 0 
0 0 0 
0 0 0 
0 0 0 
0 0 0 
0 0 0 
0 0 0 
0 0 0 
0 0 0 
0 0 0 
0 0 0 
0 0 0 
0 0 0 
0 0 0 
0 0 0 
0 0 0 
0 0 0 
0 0 0 
0 0 0 
0 0 0 
0 0 0 
0 0 0 
0 0 0 
0 0 0 
0 0 0 
0 0 0 
0 0 0 
0 0 0 
0 0 0 
0 0 0 
0 0 0 
0 0 0 
0 0 0 
0 0 0 
0 0 0 
0 0 0 
0 0 0 
0 0 0 
0 0 0 
0 0 0 
0 0 0 
0 0 0 
0 0 0 
0 0 0 
0 0 0 
0 0 0 
0 0 0 
0 0 0 
0 0 0 
0 0 0 
0 0 0 
0 0 0 
0 0 0 
0 0 0 
0 0 0 
0 0 0 
0 0 0 
0 0 0 
0 0 0 
0 0 0 
0 0 0 
0 0 0 
0 0 0 
0 0 0 
0 0 0 
0 0 0 
0 0 0 
0 0 0 
0 0 0 
0 0 0 
0 0 0 
0 0 0 
0 0 0 
0 0 0 
0 0 0 
0 0 0 
0 0 0 
0 0 0 
0 0 0 
0 0 0 
0 0 0 
0 0 0 
0 0 0 
0 0 0 
0 0 0 
0 0 0 
0 0 0 
0 0 0 
0 0 0 
0 0 0 
0 0 0 
0 0 0 
0 0 0 
0 0 0 
0 0 0 
0 0 0 
0 0 0 
0 0 0 
0 0 0 
0 0 0 
0 0 0 
0 0 0 
0 0 0 
0 0 0 
0 0 0 
0 0 0 
0 0 0 
0 0 0 
0 0 0 
0 0 0 
0 0 0 
0 0 0 
0 0 0 
0 0 0 
0 0 0 
0 0 0 
0 0 0 
0 0 0 
0 0 0 
0 0 0 
0 0 0 
0 0 0 
0 0 0 
0 0 0 
0 0 0 
0 0 0 
0 0 0 
SCALARS num_collisions int 1
LOOKUP_TABLE default
1 
1 
1 
1 
1 
1 
1 
1 
1 
1 
1 
1 
1 
1 
1 
1 
1 
1 
1 
1 
1 
1 
1 
1 
1 
1 
1 
1 
1 
1 
1 
1 
1 
1 
1 
1 
1 
1 
1 
1 
1 
1 
1 
1 
1 
1 
1 
1 
1 
1 
1 
1 
1 
1 
1 
1 
1 
1 
1 
1 
1 
1 
1 
1 
1 
1 
1 
1 
1 
1 
1 
1 
1 
1 
1 
1 
1 
1 
1 
1 
1 
1 
1 
1 
1 
1 
1 
1 
1 
1 
1 
1 
1 
1 
1 
1 
1 
1 
1 
1 
1 
1 
1 
1 
1 
1 
1 
1 
1 
1 
1 
1 
1 
1 
1 
1 
1 
1 
1 
1 
1 
1 
1 
1 
1 
1 
1 
1 
1 
1 
1 
1 
1 
1 
1 
1 
1 
1 
1 
1 
1 
1 
1 
1 
1 
1 
1 
1 
1 
1 
1 
1 
1 
1 
1 
1 
1 
1 
1 
1 
1 
1 
1 
1 
1 
1 
1 
1 
1 
1 
1 
1 
1 
1 
1 
1 
1 
1 
1 