# vtk DataFile Version 2.0
Generated by NetDEM
ASCII 
DATASET POLYDATA
POINTS 240 double
-0.418948 -0.406189 -0.463593 
-0.411093 -0.401998 -0.382647 
-0.408804 -0.00518304 -0.463178 
-0.394039 -0.00384009 -0.385253 
-0.448378 0.134403 -0.450012 
-0.449918 0.177175 -0.359637 
-0.267732 -0.431442 -0.459492 
-0.316543 -0.410529 -0.39621 
-0.0431916 -0.404908 -0.460088 
-0.0688378 -0.41458 -0.391351 
0.194154 -0.39895 -0.462001 
0.206898 -0.405221 -0.389456 
0.172092 -0.206424 -0.461636 
0.177534 -0.194267 -0.389086 
0.173892 -0.00919256 -0.461581 
0.186085 -0.00384631 -0.382588 
0.310072 0.421943 -0.40142 
0.370128 0.438283 -0.465087 
0.310072 0.421943 -0.40142 
0.300077 0.404074 -0.303554 
0.310072 0.421943 -0.40142 
0.39986 0.450619 -0.343276 
0.41784 -0.401201 -0.45002 
0.401536 -0.450002 -0.364278 
0.41784 -0.401201 -0.45002 
0.410855 -0.349694 -0.3646 
0.341357 -0.00923881 -0.450017 
0.376769 -0.0885001 -0.400404 
0.382474 0.0918154 -0.450009 
0.431607 0.0187111 -0.402666 
-0.394039 -0.00384009 -0.385253 
-0.348283 0.00920115 -0.316245 
-0.150852 -0.0762689 0.111151 
-0.171374 -0.0840281 0.208337 
-0.0688378 -0.41458 -0.391351 
-0.0732027 -0.340843 -0.328201 
0.11511 0.299635 -0.408143 
0.073054 0.399292 -0.38281 
0.11511 0.299635 -0.408143 
0.196828 0.30627 -0.321497 
0.206898 -0.405221 -0.389456 
0.196691 -0.415511 -0.315098 
0.177534 -0.194267 -0.389086 
0.174639 -0.261235 -0.345885 
0.197201 0.11243 -0.45564 
0.259818 0.177873 -0.442573 
0.197201 0.11243 -0.45564 
0.274791 0.0665941 -0.443483 
0.410855 -0.349694 -0.3646 
0.361794 -0.321287 -0.282227 
0.450109 0.137426 -0.392015 
0.385547 0.167084 -0.321832 
0.423148 0.340482 -0.455455 
0.424046 0.363937 -0.370383 
-0.348283 0.00920115 -0.316245 
-0.317353 0.0300475 -0.247904 
-0.182883 -0.371165 -0.452334 
-0.156983 -0.445383 -0.387091 
-0.171374 -0.0840281 0.208337 
-0.158152 -0.134867 0.292781 
-0.337743 0.338482 -0.303504 
-0.304634 0.313381 -0.221327 
0.0353701 -0.432675 -0.380139 
0.0969146 -0.443547 -0.307793 
0.196615 -0.311642 0.3584 
0.166387 -0.288714 0.442251 
0.249166 0.345256 -0.458771 
0.32229 0.307477 -0.407091 
0.249166 0.345256 -0.458771 
0.199693 0.393996 -0.378731 
0.196691 -0.415511 -0.315098 
0.0969146 -0.443547 -0.307793 
0.196691 -0.415511 -0.315098 
0.236372 -0.419459 -0.226679 
0.376769 -0.0885001 -0.400404 
0.45 -0.105632 -0.3345 
0.450004 0.233873 -0.363572 
0.439571 0.257129 -0.459437 
-0.317353 0.0300475 -0.247904 
-0.377397 0.00314882 -0.168381 
-0.317353 0.0300475 -0.247904 
-0.255903 0.104644 -0.200665 
-0.317353 0.0300475 -0.247904 
-0.389343 0.105142 -0.288854 
-0.156983 -0.445383 -0.387091 
-0.159498 -0.420061 -0.298364 
-0.26724 0.0407297 0.195352 
-0.332483 -0.031848 0.240177 
0.0969146 -0.443547 -0.307793 
0.0448559 -0.441795 -0.239242 
0.236372 -0.419459 -0.226679 
0.252111 -0.39038 -0.159092 
0.259818 0.177873 -0.442573 
0.230549 0.229845 -0.373112 
0.259818 0.177873 -0.442573 
0.325821 0.209044 -0.390084 
0.385547 0.167084 -0.321832 
0.325821 0.209044 -0.390084 
0.385547 0.167084 -0.321832 
0.326726 0.136231 -0.247216 
0.32229 0.307477 -0.407091 
0.325821 0.209044 -0.390084 
-0.377397 0.00314882 -0.168381 
-0.460331 -0.0192559 -0.163896 
0.252111 -0.39038 -0.159092 
0.201864 -0.404931 -0.0750391 
0.151896 0.0290688 -0.169422 
0.159092 0.00612202 -0.0761148 
0.230549 0.229845 -0.373112 
0.222508 0.181975 -0.309028 
0.361638 0.450011 -0.221764 
0.386716 0.439889 -0.137502 
0.39986 0.450619 -0.343276 
0.436473 0.400719 -0.275352 
-0.460331 -0.0192559 -0.163896 
-0.450792 -0.0493036 -0.0670481 
-0.238804 0.200931 -0.22155 
-0.272602 0.200577 -0.127439 
-0.238804 0.200931 -0.22155 
-0.255903 0.104644 -0.200665 
-0.0732027 -0.340843 -0.328201 
-0.120302 -0.379172 -0.22323 
-0.0732027 -0.340843 -0.328201 
-0.0228369 -0.364677 -0.241836 
0.436473 0.400719 -0.275352 
0.446061 0.379543 -0.176724 
0.0952051 -0.450463 -0.0483285 
0.09742 -0.442835 0.0547262 
-0.450076 0.151294 -0.193958 
-0.438264 0.159881 -0.0958784 
-0.148287 -0.311788 0.14601 
-0.22271 -0.333493 0.202212 
0.0448559 -0.441795 -0.239242 
0.00628203 -0.414146 -0.165746 
0.09742 -0.442835 0.0547262 
-0.00051193 -0.416972 0.0990587 
-0.0554522 -0.339851 0.106437 
-0.00051193 -0.416972 0.0990587 
0.00628203 -0.414146 -0.165746 
-0.012835 -0.396592 -0.0818557 
0.0824535 -0.353727 0.445921 
0.0914773 -0.442064 0.433367 
0.406473 -0.272785 -0.0873628 
0.39428 -0.310911 0.00422397 
0.326726 0.136231 -0.247216 
0.270654 0.0877962 -0.180143 
-0.012835 -0.396592 -0.0818557 
-0.00215876 -0.396803 0.00741075 
-0.00215876 -0.396803 0.00741075 
-0.00051193 -0.416972 0.0990587 
0.39428 -0.310911 0.00422397 
0.396787 -0.266857 0.0939453 
-0.0714685 -0.3439 0.208769 
-0.00407255 -0.409525 0.193429 
-0.00051193 -0.416972 0.0990587 
-0.00407255 -0.409525 0.193429 
0.386475 0.40686 0.184153 
0.296103 0.449936 0.181269 
-0.00407255 -0.409525 0.193429 
-0.00370755 -0.403437 0.284502 
-0.450076 0.151294 -0.193958 
-0.5 0.151341 -0.193867 
-0.460331 -0.0192559 -0.163896 
-0.500005 -0.0370007 -0.179757 
0.450109 0.137426 -0.392015 
0.5 0.137429 -0.392006 
0.450004 0.233873 -0.363572 
0.5 0.233877 -0.363567 
0.436473 0.400719 -0.275352 
0.500015 0.397726 -0.271586 
0.401536 -0.450002 -0.364278 
0.401537 -0.5 -0.364276 
0.09742 -0.442835 0.0547262 
0.0946748 -0.500016 0.0493438 
-0.425101 -0.450213 0.119208 
-0.420813 -0.5 0.115164 
-0.451502 -0.449789 0.300743 
-0.448904 -0.5 0.286961 
0.0952051 -0.450463 -0.0483285 
0.0896964 -0.500022 -0.0433328 
0.152592 0.45 -0.450007 
0.152585 0.5 -0.450007 
0.361638 0.450011 -0.221764 
0.36164 0.5 -0.221755 
0.173892 -0.00919256 -0.461581 
0.201356 0.00643294 -0.500006 
-0.267732 -0.431442 -0.459492 
-0.277215 -0.444753 -0.500002 
0.423148 0.340482 -0.455455 
0.418519 0.355117 -0.500004 
-0.182883 -0.371165 -0.452334 
-0.188783 -0.389395 -0.500004 
-0.251524 0.366331 -0.464493 
-0.257898 0.367446 -0.500003 
-0.408804 -0.00518304 -0.463178 
-0.375387 -0.00577959 -0.500016 
-0.418948 -0.406189 -0.463593 
-0.404511 -0.401124 -0.500005 
0.439571 0.257129 -0.459437 
0.398813 0.279855 -0.500005 
-0.168846 0.179274 -0.462541 
-0.145387 0.173565 -0.500002 
0.152592 0.45 -0.450007 
0.152585 0.45 -0.5 
0.0334772 0.18133 -0.45315 
0.0360089 0.163674 -0.500003 
0.28888 -0.178602 -0.450007 
0.288903 -0.178588 -0.5 
0.341357 -0.00923881 -0.450017 
0.341362 -0.0092371 -0.5 
0.370128 0.438283 -0.465087 
0.349842 0.447309 -0.500032 
-0.301663 0.1608 -0.465044 
-0.295338 0.139487 -0.500001 
-0.0431916 -0.404908 -0.460088 
-0.019156 -0.387504 -0.500011 
-0.448378 0.134403 -0.450012 
-0.448383 0.134404 -0.5 
0.40769 -0.296709 -0.450007 
0.407689 -0.296711 -0.5 
0.0274501 0.0933297 -0.446362 
0.023083 0.106588 -0.500002 
0.194154 -0.39895 -0.462001 
0.226205 -0.398547 -0.500026 
0.274791 0.0665941 -0.443483 
0.294801 0.0529477 -0.500004 
0.159338 0.210401 -0.464953 
0.11215 0.211282 -0.500002 
0.197201 0.11243 -0.45564 
0.208795 0.14438 -0.500037 
0.41784 -0.401201 -0.45002 
0.417823 -0.4012 -0.5 
0.172092 -0.206424 -0.461636 
0.16578 -0.175403 -0.500009 
0.249166 0.345256 -0.458771 
0.261339 0.356862 -0.500023 
0.382474 0.0918154 -0.450009 
0.382475 0.0918186 -0.5 
-0.421881 0.386042 -0.450007 
-0.421743 0.386131 -0.5 
LINES 120 360
2 0 1
2 2 3
2 4 5
2 6 7
2 8 9
2 10 11
2 12 13
2 14 15
2 16 17
2 18 19
2 20 21
2 22 23
2 24 25
2 26 27
2 28 29
2 30 31
2 32 33
2 34 35
2 36 37
2 38 39
2 40 41
2 42 43
2 44 45
2 46 47
2 48 49
2 50 51
2 52 53
2 54 55
2 56 57
2 58 59
2 60 61
2 62 63
2 64 65
2 66 67
2 68 69
2 70 71
2 72 73
2 74 75
2 76 77
2 78 79
2 80 81
2 82 83
2 84 85
2 86 87
2 88 89
2 90 91
2 92 93
2 94 95
2 96 97
2 98 99
2 100 101
2 102 103
2 104 105
2 106 107
2 108 109
2 110 111
2 112 113
2 114 115
2 116 117
2 118 119
2 120 121
2 122 123
2 124 125
2 126 127
2 128 129
2 130 131
2 132 133
2 134 135
2 136 137
2 138 139
2 140 141
2 142 143
2 144 145
2 146 147
2 148 149
2 150 151
2 152 153
2 154 155
2 156 157
2 158 159
2 160 161
2 162 163
2 164 165
2 166 167
2 168 169
2 170 171
2 172 173
2 174 175
2 176 177
2 178 179
2 180 181
2 182 183
2 184 185
2 186 187
2 188 189
2 190 191
2 192 193
2 194 195
2 196 197
2 198 199
2 200 201
2 202 203
2 204 205
2 206 207
2 208 209
2 210 211
2 212 213
2 214 215
2 216 217
2 218 219
2 220 221
2 222 223
2 224 225
2 226 227
2 228 229
2 230 231
2 232 233
2 234 235
2 236 237
2 238 239
POINT_DATA 240
SCALARS id int 1
LOOKUP_TABLE default
0
25
2
27
3
28
5
30
10
35
15
40
16
41
17
42
19
24
19
44
19
124
20
45
20
46
22
72
23
122
27
52
32
57
35
135
39
89
39
143
40
65
41
91
43
93
43
68
46
95
48
97
49
99
52
77
55
80
57
132
59
154
60
85
61
291
64
98
64
144
65
85
65
90
72
96
73
74
77
102
77
203
77
103
80
130
82
252
85
185
90
115
93
118
93
123
97
123
97
223
98
123
102
127
115
140
117
142
118
168
119
199
124
149
127
152
128
253
128
203
135
155
135
160
149
174
165
190
178
303
181
225
185
210
190
285
206
285
210
235
211
315
221
270
223
322
235
260
260
285
270
295
281
310
285
310
299
319
310
335
178
0
127
0
48
1
73
1
149
1
45
2
190
2
150
2
275
2
165
2
94
3
119
3
17
4
5
4
49
4
55
4
9
4
2
4
0
4
74
4
8
4
94
4
13
4
47
4
22
4
24
4
33
4
10
4
3
4
21
4
88
4
15
4
68
4
18
4
43
4
20
4
16
4
64
4
23
4
4
4
CELL_DATA 120
VECTORS force double
1.19617 0.688455 -7.13616 
0.846359 -5.8353 -48.8988 
0.0918231 -0.994607 -3.1209 
0.83712 -0.495965 -7.85922 
15.5039 -0.454589 -35.5221 
18.3449 8.87582 -82.4865 
-1.4826 8.79253 -20.1553 
1.86896 0.733558 -3.63668 
-15.9436 -19.6776 109.768 
16.5122 -7.91434 -22.5487 
-23.1603 15.6838 -60.2743 
0.668796 3.04858 -9.51817 
1.55315 -5.87932 -15.9914 
-10.5427 18.3791 -30.3487 
-1.152 1.64299 -4.62417 
-1.02564 -5.20543 -33.3353 
1.33673 32.3827 -83.291 
16.7584 -3.03189 -19.2033 
-41.9481 28.5616 -15.1152 
45.1158 -15.0922 29.8564 
12.067 -0.0453833 -67.4936 
-0.191419 2.36958 -5.57303 
-53.7299 -53.1525 -117.035 
2.73473 -6.62405 -3.85988 
2.17814 -2.49318 -5.55799 
231.519 -59.8846 -86.2958 
-0.444631 0.738411 -4.36136 
-2.82158 -2.75557 -22.0895 
-0.791739 -0.423604 -4.23412 
17.5423 18.7923 -70.8691 
7.26965 -14.0731 31.2909 
-1.80907 0.478316 3.48689 
75.4276 -74.8865 -255.897 
-41.4851 62.3851 -71.6883 
3.24682 -4.16978 -5.85363 
11.3117 2.15553 -10.6765 
-5.73974 -5.54021 -43.7723 
-4.50042 19.661 -13.9216 
8.33867 -4.62559 12.4069 
3.67104 2.28419 -10.6958 
-3.87836 -3.30829 -4.64845 
0.340487 -1.6283 -3.01985 
-0.839804 2.21941 1.77025 
-81.2 -78.8453 78.6367 
1.43268 3.51303 8.3943 
-2.19495 0.357708 -30.2523 
-23.8795 -26.5725 -46.9271 
-50.4313 -15.7119 -41.3783 
112.123 -82.4748 45.4707 
41.9794 12.6193 -64.9019 
-31.0523 84.5083 -52.8407 
10.1649 3.40057 -3.38894 
-1.82347 2.48218 -23.5043 
-247.25 22.0025 -213.929 
-6.54177 -6.31327 -17.919 
-0.589508 5.95749 -2.61594 
-69.0376 18.3179 -43.3738 
-1.02213 -0.0928454 -5.65926 
1.34513 -0.210032 -5.52927 
-0.508454 1.75879 -1.28924 
13.4174 -11.4262 -17.0353 
-11.4353 14.7071 2.42071 
-1.41479 2.22696 -11.6542 
-6.79549 -42.9247 6.82551 
-708.821 -191.295 -1772.15 
2.54289 1.19303 -2.49228 
-5.41238 0.146328 2.78693 
61.656 -87.2944 -32.7385 
-18.2662 1.39097 24.3458 
-2.29161 2.77002 -44.4889 
-2.86169 11.7168 4.60185 
6.88769 11.1852 -60.7353 
-5.60615 -0.89731 -0.102549 
-9.9264 -17.035 -106.808 
-6.57515 12.6588 -124.396 
0.290499 -4.97957 -44.7893 
-23.1852 25.9251 24.9357 
32.2647 2.01454 -127.613 
1389.7 -271.061 -1706.59 
15.4046 11.2305 -56.4971 
644.976 125.594 1077.28 
15.4647 3.05714 15.17 
-264.893 43.354 111.067 
-8.39806 1.87131 -4.10406 
-73.6382 20.362 -14.4206 
0.374635 2.92878 2.6652 
-81.6171 53.8782 70.2355 
3.73269 -0.0911181 6.54141 
0.201023 1.29268 4.41957 
14.3264 63.341 35.988 
1.76413e-05 -0.629692 -0.641172 
0.753776 -5.20029 9.05912 
-4.92363 -2.53379 14.6875 
1.38853 0.177142 19.6473 
0.525235 -3.37073 15.8027 
1.26986 2.24991 16.8341 
1.3129 -0.00306232 13.3524 
-1.36634 3.08139 63.881 
-0.422261 -0.319117 21.2196 
10.33 -8.49415 21.1688 
-0.819759 0.292972 7.7495 
3.76847e-05 0.635855 14.2467 
-0.482777 3.35948 12.3845 
-1.4653e-13 -3.14774e-14 13.6117 
7.65348 -14.6273 46.8465 
-15.9125 -31.4922 133.756 
0.556398 -0.541988 13.9976 
-16.1172 -16.6957 47.3584 
0.0475219 0.0685524 10.8643 
0.00119126 -0.00431745 13.6088 
0.000408964 -1.45908 9.45272 
-16.6572 -14.9203 102.571 
-2.286 2.37226 17.7018 
3.28429 -0.0732771 5.61571 
46.1537 52.8638 132.774 
-1.17253 1.66626 39.0129 
4.64835 -9.06433 35.6726 
43.6829 -52.9859 92.693 
1.57567 -2.41068 18.4314 
6.83196e-07 -5.57985e-06 13.6117 
VECTORS moment double
0 0 0 
0 0 0 
0 0 0 
0 0 0 
0 0 0 
0 0 0 
0 0 0 
0 0 0 
0 0 0 
0 0 0 
0 0 0 
0 0 0 
0 0 0 
0 0 0 
0 0 0 
0 0 0 
0 0 0 
0 0 0 
0 0 0 
0 0 0 
0 0 0 
0 0 0 
0 0 0 
0 0 0 
0 0 0 
0 0 0 
0 0 0 
0 0 0 
0 0 0 
0 0 0 
0 0 0 
0 0 0 
0 0 0 
0 0 0 
0 0 0 
0 0 0 
0 0 0 
0 0 0 
0 0 0 
0 0 0 
0 0 0 
0 0 0 
0 0 0 
0 0 0 
0 0 0 
0 0 0 
0 0 0 
0 0 0 
0 0 0 
0 0 0 
0 0 0 
0 0 0 
0 0 0 
0 0 0 
0 0 0 
0 0 0 
0 0 0 
0 0 0 
0 0 0 
0 0 0 
0 0 0 
0 0 0 
0 0 0 
0 0 0 
0 0 0 
0 0 0 
0 0 0 
0 0 0 
0 0 0 
0 0 0 
0 0 0 
0 0 0 
0 0 0 
0 0 0 
0 0 0 
0 0 0 
0 0 0 
0 0 0 
0 0 0 
0 0 0 
0 0 0 
0 0 0 
0 0 0 
0 0 0 
0 0 0 
0 0 0 
0 0 0 
0 0 0 
0 0 0 
0 0 0 
0 0 0 
0 0 0 
0 0 0 
0 0 0 
0 0 0 
0 0 0 
0 0 0 
0 0 0 
0 0 0 
0 0 0 
0 0 0 
0 0 0 
0 0 0 
0 0 0 
0 0 0 
0 0 0 
0 0 0 
0 0 0 
0 0 0 
0 0 0 
0 0 0 
0 0 0 
0 0 0 
0 0 0 
0 0 0 
0 0 0 
0 0 0 
0 0 0 
0 0 0 
0 0 0 
SCALARS num_collisions int 1
LOOKUP_TABLE default
1 
1 
1 
1 
1 
1 
1 
1 
1 
1 
1 
1 
1 
1 
1 
1 
1 
1 
1 
1 
1 
1 
1 
1 
1 
1 
1 
1 
1 
1 
1 
1 
1 
1 
1 
1 
1 
1 
1 
1 
1 
1 
1 
1 
1 
1 
1 
1 
1 
1 
1 
1 
1 
1 
1 
1 
1 
1 
1 
1 
1 
1 
1 
1 
1 
1 
1 
1 
1 
1 
1 
1 
1 
1 
1 
1 
1 
1 
1 
1 
1 
1 
1 
1 
1 
1 
1 
1 
1 
1 
1 
1 
1 
1 
1 
1 
1 
1 
1 
1 
1 
1 
1 
1 
1 
1 
1 
1 
1 
1 
1 
1 
1 
1 
1 
1 
1 
1 
1 
1 
VECTORS pos double
-0.380983 -0.393353 -0.424562 
-0.36732 -0.00235141 -0.425944 
-0.44915 0.155793 -0.404827 
-0.28217 -0.42034 -0.426646 
-0.0457795 -0.409742 -0.423641 
0.218316 -0.410909 -0.423453 
0.176282 -0.183757 -0.423176 
0.207523 0.00467458 -0.425213 
0.336879 0.432951 -0.442132 
0.305079 0.413021 -0.352484 
0.335744 0.435792 -0.360821 
0.40968 -0.425601 -0.407148 
0.414332 -0.375448 -0.407309 
0.359065 -0.048863 -0.4252 
0.407039 0.0552757 -0.426321 
-0.354638 0.0163325 -0.35346 
-0.161124 -0.0801252 0.159589 
-0.0802177 -0.369357 -0.35867 
0.0797232 0.343525 -0.399903 
0.129641 0.318072 -0.357108 
0.201882 -0.416736 -0.3545 
0.1613 -0.240738 -0.377992 
0.2246 0.167416 -0.453473 
0.236564 0.100197 -0.441876 
0.386324 -0.335492 -0.323403 
0.417827 0.152255 -0.356914 
0.413901 0.335464 -0.403408 
-0.348751 0.0291832 -0.284075 
-0.181847 -0.402136 -0.40562 
-0.164752 -0.109353 0.25039 
-0.312069 0.331659 -0.267312 
0.0466017 -0.463926 -0.337403 
0.19389 -0.302399 0.407235 
0.297165 0.322555 -0.447577 
0.213666 0.366646 -0.418172 
0.149638 -0.420004 -0.333198 
0.222333 -0.409955 -0.261617 
0.413384 -0.09706 -0.367432 
0.442205 0.242702 -0.412157 
-0.354827 0.0104828 -0.22453 
-0.277841 0.0666926 -0.224699 
-0.370279 0.0608481 -0.275727 
-0.151161 -0.442236 -0.335571 
-0.298238 0.00711802 0.215441 
0.0650667 -0.443957 -0.281318 
0.215536 -0.39247 -0.193113 
0.215503 0.191182 -0.394248 
0.296189 0.18409 -0.421663 
0.355683 0.188062 -0.355946 
0.356146 0.151646 -0.284517 
0.324047 0.258258 -0.398578 
-0.42233 -0.0216943 -0.150083 
0.22791 -0.405458 -0.128975 
0.178051 0.0138796 -0.130539 
0.242477 0.190357 -0.344949 
0.368674 0.452366 -0.17231 
0.408653 0.422835 -0.297159 
-0.455641 -0.0454439 -0.109742 
-0.255716 0.20078 -0.174491 
-0.247358 0.152805 -0.211106 
-0.0842773 -0.395534 -0.288556 
-0.0510167 -0.365247 -0.278156 
0.418129 0.380847 -0.247526 
0.103083 -0.451276 0.0103733 
-0.444167 0.155609 -0.144821 
-0.181302 -0.330926 0.178381 
0.0225646 -0.429032 -0.194365 
0.0418564 -0.420711 0.0779592 
-0.0176014 -0.371875 0.100117 
0.0110813 -0.412167 -0.119091 
0.0955474 -0.400405 0.43382 
0.400373 -0.291857 -0.0415049 
0.298709 0.112049 -0.21364 
-0.000382823 -0.400624 -0.0365158 
0.0110295 -0.38559 0.0490944 
0.395532 -0.288894 0.0491451 
-0.0397867 -0.382496 0.206956 
0.0109858 -0.392983 0.142001 
0.339452 0.426763 0.172512 
0.0029516 -0.40285 0.230391 
-0.5 0.151341 -0.193867 
-0.500005 -0.0370007 -0.179757 
0.5 0.137429 -0.392006 
0.5 0.233877 -0.363567 
0.500015 0.397726 -0.271586 
0.401537 -0.5 -0.364276 
0.0946748 -0.500016 0.0493438 
-0.420813 -0.5 0.115164 
-0.448904 -0.5 0.286961 
0.0896964 -0.500022 -0.0433328 
0.152585 0.5 -0.450007 
0.36164 0.5 -0.221755 
0.201356 0.00643294 -0.500006 
-0.277215 -0.444753 -0.500002 
0.418519 0.355117 -0.500004 
-0.188783 -0.389395 -0.500004 
-0.257898 0.367446 -0.500003 
-0.375387 -0.00577959 -0.500016 
-0.404511 -0.401124 -0.500005 
0.398813 0.279855 -0.500005 
-0.145387 0.173565 -0.500002 
0.152585 0.45 -0.5 
0.0360089 0.163674 -0.500003 
0.288903 -0.178588 -0.5 
0.341362 -0.0092371 -0.5 
0.349842 0.447309 -0.500032 
-0.295338 0.139487 -0.500001 
-0.019156 -0.387504 -0.500011 
-0.448383 0.134404 -0.5 
0.407689 -0.296711 -0.5 
0.023083 0.106588 -0.500002 
0.226205 -0.398547 -0.500026 
0.294801 0.0529477 -0.500004 
0.11215 0.211282 -0.500002 
0.208795 0.14438 -0.500037 
0.417823 -0.4012 -0.5 
0.16578 -0.175403 -0.500009 
0.261339 0.356862 -0.500023 
0.382475 0.0918186 -0.5 
-0.421743 0.386131 -0.5 
VECTORS dir_n double
-0.111343 0.00556665 -0.993766 
-0.120804 -0.059704 -0.990879 
0.0153557 -0.427805 -0.903741 
0.607713 -0.1905 -0.77097 
0.151009 -0.074936 -0.985688 
0.0943865 -0.0030048 -0.995531 
-0.0262697 0.0963021 -0.995005 
-0.161857 -0.0514673 -0.985471 
-0.536413 -0.220123 0.814744 
0.0999166 0.178636 -0.978829 
-0.513547 -0.276887 -0.812159 
0.162873 0.48805 -0.857485 
0.0698285 -0.515082 -0.854292 
-0.354099 0.7926 -0.496387 
-0.491286 0.730873 -0.473775 
-0.263839 -0.184598 -0.946738 
0.205241 0.0777553 -0.975618 
0.0449111 -0.667385 -0.743357 
-0.278308 0.960315 -0.0184205 
0.850011 0.137998 0.508367 
0.327794 0.164052 -0.930397 
-0.0994584 0.757444 -0.64528 
-0.713526 -0.560647 -0.420186 
0.84439 -0.176774 0.505724 
0.49035 -0.284086 -0.823925 
0.646463 -0.296932 -0.702792 
-0.189178 -0.078577 -0.978794 
-0.00358488 -0.29297 -0.956115 
-0.149605 0.590629 -0.792954 
-0.132655 0.510287 -0.849712 
0.149729 -0.364023 0.919276 
0.377859 -0.0138639 0.925759 
0.0529432 -0.184209 -0.98146 
-0.502481 0.301777 -0.810212 
0.279654 -0.547098 -0.788972 
0.930061 0.281762 -0.235788 
-0.470386 0.0766774 -0.879123 
-0.732325 0.171423 -0.659025 
0.156028 -0.176342 0.971884 
0.599902 -0.135423 -0.788529 
-0.438584 -0.759393 -0.480589 
0.381506 -0.88636 0.262336 
0.182399 0.167865 0.968789 
-0.62003 -0.672083 0.404804 
-0.46541 0.143756 0.873343 
-0.0485528 -0.257465 -0.965067 
-0.119122 -0.531026 -0.838941 
-0.592737 -0.499181 -0.632045 
0.597721 -0.419897 0.682946 
0.588701 0.309056 -0.746937 
-0.0354198 0.984765 -0.170244 
0.977809 0.15005 0.146202 
0.544441 -0.0115414 -0.83872 
-0.15592 0.398369 -0.903876 
0.0640639 0.460905 -0.885134 
-0.140683 -0.0471011 -0.988934 
-0.444605 0.361113 -0.819709 
-0.272216 0.336093 -0.901632 
0.338236 0.00340269 -0.941055 
0.171079 0.962897 -0.208715 
0.624375 0.144055 -0.767727 
-0.377657 0.401347 -0.834443 
0.180553 0.26966 -0.945877 
-0.197878 -0.215931 -0.956148 
-0.118726 -0.0860867 -0.989188 
0.658432 0.38563 -0.646341 
-0.261244 0.57333 0.776559 
0.778284 -0.086191 -0.621969 
-0.757023 0.640765 0.127817 
0.366114 -0.261425 -0.893094 
-0.26272 0.934085 0.241792 
0.121913 0.381538 -0.916278 
-0.561058 -0.483532 0.671871 
-0.504273 0.216452 -0.835977 
-0.298111 0.25252 -0.920524 
-0.0250322 -0.440669 -0.897321 
-0.63517 0.771502 0.0366618 
-0.389268 -0.0194898 -0.920918 
0.867993 -0.463662 -0.177782 
-0.356617 0.029101 -0.933798 
1 0 0 
1 3.5653e-17 -7.93969e-17 
-1 0 0 
-1 0 0 
-1 5.70043e-17 4.498e-17 
3.41439e-16 1 0 
6.10507e-17 1 -1.14442e-17 
1.08312e-14 -1 9.85655e-17 
9.14448e-16 1 2.03736e-17 
-2.41549e-17 1 2.84208e-18 
1.58808e-15 -1 0 
1.92297e-16 -1 0 
-4.19098e-18 -2.08114e-17 1 
-6.90702e-17 -5.32453e-17 1 
3.6278e-17 -7.19703e-18 1 
1.13392e-16 2.73866e-17 1 
3.53281e-17 -1.27937e-16 1 
1.14838e-16 6.47904e-18 1 
1.00757e-16 -5.19301e-17 1 
9.16612e-17 5.42719e-17 1 
9.4811e-17 6.34661e-17 1 
7.01917e-17 0 1 
1.38369e-16 -7.54101e-17 1 
7.3466e-17 0 1 
2.13463e-17 0 1 
4.50337e-17 1.08953e-16 1 
-2.97803e-17 -1.84329e-17 1 
7.44989e-17 2.74802e-17 1 
9.20448e-17 0 1 
7.34818e-17 0 1 
1.79935e-16 -2.41295e-17 1 
-1.36433e-16 -1.32062e-17 1 
-1.44993e-16 5.06749e-17 1 
1.74878e-16 3.07314e-17 1 
3.18587e-17 -1.45706e-16 1 
2.56326e-17 0 1 
-5.61841e-17 -5.32152e-18 1 
6.3642e-17 2.91633e-17 1 
5.42553e-17 0 1 
7.3466e-17 0 1 
VECTORS dir_s double
0.944592 0.311304 -0.10409 
0.913462 -0.397423 -0.0874193 
0.0957197 0.900325 -0.424562 
-0.750246 0.180623 -0.636008 
0.96451 0.229655 0.130305 
0.750821 0.656871 0.0692028 
-0.135665 0.985797 0.0989926 
0.922411 0.346969 -0.169621 
0.826141 0.0603503 0.560222 
0.767749 -0.639602 -0.0383574 
0.1675 0.895947 -0.411366 
-0.40729 -0.758327 -0.508974 
0.117168 0.85469 -0.505744 
0.0793719 -0.503392 -0.860405 
0.253782 -0.400227 -0.880575 
0.952349 0.105873 -0.286046 
-0.523826 0.85077 -0.0423925 
0.833597 0.435114 -0.340281 
-0.875421 -0.261502 -0.406515 
0.0615578 -0.984485 0.164314 
-0.625217 -0.700639 -0.343814 
0.127074 -0.633517 -0.763222 
0.398918 0.167931 -0.901478 
0.180664 -0.794735 -0.579445 
-0.777498 -0.56973 -0.266279 
0.748723 0.0698747 0.65919 
0.32048 0.937269 -0.137185 
-0.581554 0.77842 -0.236341 
-0.107123 -0.806941 -0.580836 
0.788263 -0.465396 -0.402551 
0.786872 -0.519098 -0.33372 
-0.911624 0.169117 0.374622 
0.917118 -0.379881 0.120772 
0.220748 0.950828 0.217247 
0.956879 0.091557 0.27568 
-0.177483 -0.217362 -0.95982 
0.75252 -0.485487 -0.44499 
0.37969 0.90618 -0.186209 
0.924362 -0.320738 -0.206595 
-0.490785 0.716069 -0.496361 
-0.427972 0.646722 -0.63134 
0.0126717 -0.278759 -0.960277 
-0.532139 0.845391 -0.0462951 
0.0970419 0.446296 0.889608 
0.824527 0.429156 0.368755 
-0.0949449 0.963021 -0.252143 
-0.981461 0.190758 0.0186141 
-0.612535 0.788944 -0.048658 
0.52998 -0.432226 -0.72959 
-0.246484 -0.811391 -0.529991 
-0.592909 -0.157838 -0.78965 
0.0826348 0.365041 -0.927317 
-0.823123 0.185056 -0.536863 
-0.943067 -0.332206 0.0162661 
-0.467613 -0.769693 -0.434638 
-0.0416689 0.998264 -0.0416178 
-0.895587 -0.195383 0.399687 
0.205508 -0.895091 -0.3957 
-0.87946 -0.35471 -0.31738 
-0.67805 -0.0386304 -0.734 
0.0726428 -0.989297 -0.126551 
-0.493326 0.675413 0.54813 
-0.942381 -0.22794 -0.244869 
-0.136678 -0.959829 0.245048 
-0.990144 -0.064268 0.124434 
0.28237 -0.922605 -0.262807 
-0.915802 -0.401461 -0.0116907 
0.0317487 -0.983866 0.176069 
-0.192983 -0.406167 0.893189 
-0.703068 0.55103 -0.449512 
0.313509 -0.154358 0.936956 
-0.0398611 -0.920537 -0.388615 
-0.814767 0.179248 -0.551384 
0.597154 -0.611895 -0.518644 
0.789672 -0.476519 -0.386454 
0.0881275 0.893135 -0.441071 
-0.0230699 -0.0663958 0.997527 
0.919504 0.0510574 -0.389751 
-0.0198685 0.325301 -0.945402 
0.901239 0.274067 -0.335642 
9.2202e-19 0.115801 0.993272 
1.35409e-16 0.197554 0.980292 
8.38727e-18 0.363622 0.931547 
2.21702e-16 0.414873 -0.909879 
6.06014e-17 0.81607 -0.577953 
0.139197 0 0.990265 
-0.75798 3.96716e-17 0.652278 
0.495612 1.44343e-17 0.868544 
0.0454377 -2.67529e-17 0.998967 
0.369859 1.21325e-17 0.929088 
2.75142e-05 0 -1 
0.0829198 0 0.996556 
-0.889168 -0.457582 -7.37884e-17 
0.99196 0.126549 1.25741e-16 
0.153964 -0.988076 -2.95384e-18 
0.49152 0.870866 -5.03864e-17 
0.999997 -0.00233249 3.92661e-17 
-0.405354 0.91416 3.42815e-17 
-0.797799 -0.602924 1.14765e-17 
0.772403 -0.635132 1.58246e-19 
-0.941669 0.336541 -5.35919e-17 
5.92662e-05 1 0 
-0.142244 0.989832 8.28398e-17 
-0.977398 -0.211406 0 
0.463607 -0.886041 0 
-0.450982 -0.892533 1.14182e-16 
0.716322 -0.69777 5.96451e-17 
-0.694533 -0.719461 5.68473e-17 
0.569717 0.821841 0 
0.265978 -0.963979 0 
0.000280288 -1 -2.41503e-17 
-0.744875 -0.667204 -1.17699e-16 
-0.693895 0.720076 -1.76299e-16 
0.999751 -0.0223059 3.87903e-18 
0.657679 0.753298 9.37605e-17 
-0.575486 0.817812 0 
0.456315 -0.889818 3.36942e-17 
0.636119 -0.771591 -1.11191e-17 
0.547117 -0.837056 0 
0.121532 -0.992587 0 
