# vtk DataFile Version 2.0
Generated by NetDEM
ASCII 
DATASET POLYDATA
POINTS 606 double
-0.418446 -0.406346 -0.463501 
-0.426263 -0.404256 -0.391906 
-0.413547 -0.0060278 -0.465027 
-0.413396 -0.0118205 -0.386965 
-0.450002 0.118193 -0.450033 
-0.379962 0.0827738 -0.388079 
-0.450002 0.118193 -0.450033 
-0.450005 0.176529 -0.368836 
-0.449058 0.347703 -0.450045 
-0.438996 0.275017 -0.382147 
-0.271105 -0.429526 -0.459123 
-0.257635 -0.430373 -0.358892 
-0.308353 -0.206316 -0.450014 
-0.225291 -0.181162 -0.400348 
-0.200173 -0.00756069 -0.450009 
-0.174624 0.0790438 -0.450138 
-0.173262 0.171869 -0.463825 
-0.174624 0.0790438 -0.450138 
-0.252788 0.368411 -0.463745 
-0.23036 0.324159 -0.393302 
-0.0546376 -0.398458 -0.461212 
0.0427185 -0.439591 -0.446442 
-0.0546376 -0.398458 -0.461212 
-0.0856566 -0.38818 -0.394737 
-0.150094 -0.137843 -0.450072 
-0.155053 -0.0718771 -0.375291 
-0.0555675 -0.0863494 -0.450015 
0.0509597 -0.0921056 -0.449902 
-0.0555675 -0.0863494 -0.450015 
-0.00605789 -0.0226426 -0.392561 
0.0349022 0.178806 -0.452296 
0.0255039 0.259988 -0.44974 
0.0349022 0.178806 -0.452296 
0.110414 0.136393 -0.398976 
-0.0306098 0.32079 -0.440941 
-0.108774 0.315363 -0.395236 
0.193018 -0.400818 -0.462858 
0.205745 -0.412222 -0.389306 
0.168961 -0.209578 -0.462944 
0.16522 -0.204844 -0.389277 
0.172905 -0.00932508 -0.462838 
0.175315 0.00678058 -0.384358 
0.160163 0.209584 -0.465049 
0.118459 0.301018 -0.424211 
0.303887 0.404606 -0.411606 
0.28836 0.376088 -0.317032 
0.303887 0.404606 -0.411606 
0.370838 0.438639 -0.465056 
0.450013 -0.407322 -0.450041 
0.39741 -0.450013 -0.376549 
0.430953 -0.301305 -0.450048 
0.438311 -0.354657 -0.365842 
0.339158 -0.0100255 -0.450026 
0.273832 0.0668648 -0.443983 
0.339158 -0.0100255 -0.450026 
0.253077 -0.0576454 -0.432167 
0.381009 0.0916571 -0.450038 
0.323625 0.0643043 -0.372858 
0.381009 0.0916571 -0.450038 
0.450018 0.138109 -0.394584 
-0.426263 -0.404256 -0.391906 
-0.434669 -0.438035 -0.325918 
-0.413396 -0.0118205 -0.386965 
-0.326252 -0.0101148 -0.347622 
-0.450005 0.176529 -0.368836 
-0.438996 0.275017 -0.382147 
-0.450005 0.176529 -0.368836 
-0.445167 0.0993916 -0.3054 
-0.328589 -0.412062 -0.398018 
-0.273521 -0.335848 -0.347908 
-0.225291 -0.181162 -0.400348 
-0.193479 -0.245656 -0.330864 
-0.225291 -0.181162 -0.400348 
-0.305524 -0.208899 -0.347582 
-0.147203 -0.107524 -0.131445 
-0.0866462 -0.166327 -0.185043 
-0.310265 0.15558 -0.462329 
-0.285581 0.115773 -0.388605 
-0.144398 0.402761 -0.445934 
-0.219688 0.442229 -0.399465 
-0.0856566 -0.38818 -0.394737 
-0.101351 -0.307632 -0.36079 
0.320252 -0.238057 -0.0890595 
0.308856 -0.161843 -0.156924 
0.0255039 0.259988 -0.44974 
-0.0360075 0.223554 -0.381929 
0.118459 0.301018 -0.424211 
0.0641847 0.395691 -0.407193 
0.205745 -0.412222 -0.389306 
0.207136 -0.433705 -0.316672 
0.205745 -0.412222 -0.389306 
0.26018 -0.321633 -0.346647 
0.16522 -0.204844 -0.389277 
0.210043 -0.198841 -0.3032 
0.16522 -0.204844 -0.389277 
0.161277 -0.30478 -0.373873 
0.175315 0.00678058 -0.384358 
0.163204 0.0494071 -0.32547 
0.195362 0.112323 -0.456473 
0.260104 0.176597 -0.445792 
0.195362 0.112323 -0.456473 
0.110414 0.136393 -0.398976 
0.28836 0.376088 -0.317032 
0.202003 0.311171 -0.334486 
0.28836 0.376088 -0.317032 
0.249109 0.450021 -0.262403 
0.39741 -0.450013 -0.376549 
0.450004 -0.448366 -0.29152 
0.39741 -0.450013 -0.376549 
0.348854 -0.411482 -0.298117 
0.438311 -0.354657 -0.365842 
0.450026 -0.312567 -0.275927 
0.450018 0.138109 -0.394584 
0.449929 0.0556647 -0.338018 
0.424981 0.339685 -0.456353 
0.429748 0.366712 -0.376036 
0.424981 0.339685 -0.456353 
0.330831 0.308126 -0.412563 
-0.434669 -0.438035 -0.325918 
-0.436858 -0.451927 -0.244145 
-0.326252 -0.0101148 -0.347622 
-0.251541 0.00211333 -0.334336 
-0.326252 -0.0101148 -0.347622 
-0.323406 -0.0201929 -0.253023 
-0.291104 0.266232 -0.450066 
-0.318948 0.241203 -0.357359 
-0.438996 0.275017 -0.382147 
-0.421888 0.260318 -0.284743 
-0.182264 -0.372446 -0.451992 
-0.160399 -0.446498 -0.390621 
0.208852 -0.327783 -0.204558 
0.253466 -0.299631 -0.275495 
-0.347501 0.334813 -0.330388 
-0.35677 0.372777 -0.405162 
-0.347501 0.334813 -0.330388 
-0.290438 0.319272 -0.263017 
0.0427185 -0.439591 -0.446442 
0.0730676 -0.349161 -0.391305 
-0.0360075 0.223554 -0.381929 
0.00649442 0.293351 -0.332705 
-0.0360075 0.223554 -0.381929 
-0.108774 0.315363 -0.395236 
0.255885 0.330706 -0.463812 
0.207357 0.385605 -0.393658 
0.207136 -0.433705 -0.316672 
0.265142 -0.438997 -0.234763 
0.207136 -0.433705 -0.316672 
0.0965555 -0.449407 -0.334504 
0.0509597 -0.0921056 -0.449902 
0.133677 -0.0979726 -0.396437 
0.273832 0.0668648 -0.443983 
0.323625 0.0643043 -0.372858 
0.110414 0.136393 -0.398976 
0.0510401 0.11729 -0.325277 
0.378742 -0.215908 -0.450053 
0.450033 -0.207345 -0.380512 
0.378742 -0.215908 -0.450053 
0.336412 -0.177414 -0.368068 
0.382193 -0.106962 -0.450049 
0.350753 -0.0777722 -0.359734 
0.382193 -0.106962 -0.450049 
0.450011 -0.105051 -0.376622 
0.450003 0.233526 -0.364614 
0.399107 0.29835 -0.30799 
0.450003 0.233526 -0.364614 
0.448667 0.219773 -0.265603 
0.450003 0.233526 -0.364614 
0.438241 0.25497 -0.459958 
-0.436858 -0.451927 -0.244145 
-0.393711 -0.440766 -0.166278 
-0.285581 0.115773 -0.388605 
-0.230892 0.175576 -0.330157 
-0.285581 0.115773 -0.388605 
-0.379962 0.0827738 -0.388079 
-0.160399 -0.446498 -0.390621 
-0.257635 -0.430373 -0.358892 
-0.160399 -0.446498 -0.390621 
-0.162883 -0.384058 -0.325431 
-0.155053 -0.0718771 -0.375291 
-0.159409 -0.0838462 -0.276487 
-0.0568396 0.126441 -0.441849 
0.0212391 0.0477432 -0.450073 
-0.35677 0.372777 -0.405162 
-0.31399 0.436476 -0.34198 
0.44999 -0.318509 -0.00907956 
0.407049 -0.288198 -0.0941394 
0.44999 -0.318509 -0.00907956 
0.448806 -0.377347 0.0717616 
0.0212391 0.0477432 -0.450073 
0.0319264 0.0424045 -0.353861 
0.0641847 0.395691 -0.407193 
-0.00228123 0.438835 -0.465028 
0.265142 -0.438997 -0.234763 
0.348854 -0.411482 -0.298117 
0.265142 -0.438997 -0.234763 
0.301198 -0.386371 -0.197476 
0.161277 -0.30478 -0.373873 
0.26018 -0.321633 -0.346647 
0.127822 0.0640613 -0.262679 
0.203732 0.142953 -0.251765 
0.127822 0.0640613 -0.262679 
0.111523 -0.0107378 -0.188054 
0.260104 0.176597 -0.445792 
0.329066 0.209113 -0.398693 
0.260104 0.176597 -0.445792 
0.235908 0.231017 -0.377211 
0.357506 -0.314861 -0.3224 
0.26018 -0.321633 -0.346647 
0.357506 -0.314861 -0.3224 
0.393375 -0.224273 -0.299892 
0.450011 -0.105051 -0.376622 
0.438133 -0.0375603 -0.303836 
0.450011 -0.105051 -0.376622 
0.450007 -0.143285 -0.284234 
0.330831 0.308126 -0.412563 
0.329066 0.209113 -0.398693 
0.429748 0.366712 -0.376036 
0.437814 0.397537 -0.29286 
0.429748 0.366712 -0.376036 
0.397526 0.448209 -0.359754 
-0.393711 -0.440766 -0.166278 
-0.378576 -0.370243 -0.104833 
-0.393711 -0.440766 -0.166278 
-0.462371 -0.452461 -0.109294 
-0.323406 -0.0201929 -0.253023 
-0.369317 0.00878208 -0.179972 
-0.0866462 -0.166327 -0.185043 
-0.0934949 -0.242391 -0.249523 
0.0319264 0.0424045 -0.353861 
0.0510401 0.11729 -0.325277 
0.26018 -0.321633 -0.346647 
0.253466 -0.299631 -0.275495 
0.0432515 0.0728468 -0.250976 
0.0510401 0.11729 -0.325277 
0.0432515 0.0728468 -0.250976 
0.00437962 0.11329 -0.180262 
0.235908 0.231017 -0.377211 
0.202003 0.311171 -0.334486 
0.235908 0.231017 -0.377211 
0.226292 0.184158 -0.316135 
0.348991 0.449925 -0.257805 
0.249109 0.450021 -0.262403 
0.348991 0.449925 -0.257805 
0.381121 0.427659 -0.181213 
0.450033 -0.207345 -0.380512 
0.393375 -0.224273 -0.299892 
-0.230892 0.175576 -0.330157 
-0.222348 0.209539 -0.236632 
-0.31399 0.436476 -0.34198 
-0.380551 0.450004 -0.268599 
-0.31399 0.436476 -0.34198 
-0.219688 0.442229 -0.399465 
-0.162883 -0.384058 -0.325431 
-0.216925 -0.36548 -0.219324 
-0.0934949 -0.242391 -0.249523 
-0.142606 -0.321565 -0.274656 
-0.0934949 -0.242391 -0.249523 
-0.0589121 -0.276705 -0.16225 
-0.23036 0.324159 -0.393302 
-0.167874 0.35392 -0.319795 
-0.23036 0.324159 -0.393302 
-0.208114 0.274169 -0.324283 
-0.101351 -0.307632 -0.36079 
-0.142606 -0.321565 -0.274656 
0.440842 0.0503524 -0.145853 
0.444793 0.0801767 -0.241209 
0.440842 0.0503524 -0.145853 
0.449835 0.149943 -0.146433 
0.236994 -0.143462 -0.382911 
0.253077 -0.0576454 -0.432167 
0.236994 -0.143462 -0.382911 
0.253217 -0.0757024 -0.330455 
0.236994 -0.143462 -0.382911 
0.336412 -0.177414 -0.368068 
0.236994 -0.143462 -0.382911 
0.133677 -0.0979726 -0.396437 
0.111523 -0.0107378 -0.188054 
0.131316 -0.0169855 -0.0963845 
0.202003 0.311171 -0.334486 
0.207357 0.385605 -0.393658 
0.449929 0.0556647 -0.338018 
0.438133 -0.0375603 -0.303836 
0.449929 0.0556647 -0.338018 
0.444793 0.0801767 -0.241209 
0.437814 0.397537 -0.29286 
0.446375 0.373775 -0.201938 
-0.108258 0.275449 -0.309372 
-0.129146 0.189225 -0.312201 
-0.108258 0.275449 -0.309372 
-0.0390573 0.267433 -0.229733 
-0.0132025 -0.343383 -0.31914 
-0.0492135 -0.395659 -0.259306 
0.00649442 0.293351 -0.332705 
-0.0390573 0.267433 -0.229733 
0.262954 -0.122091 -0.2366 
0.33583 -0.05399 -0.263764 
0.226292 0.184158 -0.316135 
0.153933 0.229483 -0.269155 
0.226292 0.184158 -0.316135 
0.306027 0.135141 -0.270936 
0.393375 -0.224273 -0.299892 
0.446513 -0.232845 -0.215642 
0.350753 -0.0777722 -0.359734 
0.33583 -0.05399 -0.263764 
0.323625 0.0643043 -0.372858 
0.36291 0.0400849 -0.284155 
0.399107 0.29835 -0.30799 
0.31578 0.243163 -0.30468 
0.446375 0.373775 -0.201938 
0.449759 0.272673 -0.18076 
0.446375 0.373775 -0.201938 
0.409811 0.409303 -0.108737 
-0.328017 -0.439902 -0.027914 
-0.242245 -0.441409 -0.0690224 
-0.328017 -0.439902 -0.027914 
-0.343788 -0.415496 0.0649016 
-0.445167 0.0993916 -0.3054 
-0.425616 0.139152 -0.21576 
-0.421888 0.260318 -0.284743 
-0.448487 0.234989 -0.191735 
-0.421888 0.260318 -0.284743 
-0.354067 0.206365 -0.234864 
-0.158545 -0.302284 -0.16957 
-0.216 -0.335604 -0.0824579 
-0.145293 0.442704 -0.3277 
-0.167874 0.35392 -0.319795 
-0.145293 0.442704 -0.3277 
-0.158034 0.434764 -0.209885 
-0.0390573 0.267433 -0.229733 
[...]
POINT_DATA 606
SCALARS id int 1
LOOKUP_TABLE default
0
25
2
27
3
103
3
28
4
54
5
105
6
31
7
58
8
58
9
134
10
60
10
35
11
81
12
66
12
108
13
38
13
69
14
139
15
40
16
41
17
42
18
39
19
44
19
24
20
45
21
46
22
68
22
147
23
172
23
48
25
50
27
52
28
54
28
178
30
180
31
87
31
51
32
106
33
78
34
159
35
135
36
192
38
63
39
89
40
65
40
116
41
216
41
91
42
67
43
93
43
69
44
143
44
194
45
145
45
120
46
195
48
148
49
99
49
98
50
75
52
77
52
102
53
154
54
179
55
80
56
241
59
84
59
283
60
110
63
164
63
139
64
144
65
90
65
85
66
166
68
172
69
138
71
121
71
146
72
171
72
96
73
173
73
273
73
74
75
100
78
128
78
103
80
105
80
130
81
162
83
88
84
129
86
295
86
261
88
113
89
114
90
120
90
115
91
116
92
193
92
142
93
123
93
118
95
116
95
170
96
222
96
196
98
123
99
149
99
124
100
101
100
125
102
177
106
131
113
138
116
241
117
138
117
238
118
143
118
168
119
194
119
199
121
170
128
253
129
204
129
159
130
205
131
155
131
206
134
209
134
153
135
155
137
272
137
248
141
147
141
322
141
146
141
166
142
292
143
144
148
222
148
272
149
174
158
183
158
188
160
210
164
188
167
297
168
218
168
223
170
221
171
297
172
197
173
198
174
298
174
224
175
200
175
275
178
303
179
201
179
279
181
225
184
209
184
259
188
212
192
271
193
268
194
344
194
319
195
220
196
271
197
297
200
305
200
255
202
279
202
258
203
208
204
254
205
255
206
281
209
234
210
235
212
287
219
318
220
270
221
296
222
347
224
249
225
276
227
304
230
280
233
253
233
388
234
258
235
260
239
264
243
294
245
345
246
371
246
296
248
348
249
274
254
304
259
333
260
285
265
345
267
322
268
293
273
298
273
348
274
299
274
324
278
327
278
301
278
303
285
310
285
340
289
333
293
343
301
377
310
335
323
398
323
348
324
424
330
335
343
397
399
424
400
425
421
443
28
0
278
0
3
0
48
1
174
1
73
1
345
1
20
1
121
1
96
1
324
1
195
1
145
1
196
1
149
1
245
2
45
2
80
2
200
2
440
2
175
2
169
3
274
3
94
3
204
3
239
3
194
3
159
3
53
4
17
4
49
4
55
4
11
4
0
4
74
4
88
4
22
4
10
4
64
4
114
4
4
4
16
4
24
4
2
4
20
4
72
4
109
4
12
4
8
4
5
4
15
4
38
4
66
4
18
4
71
4
9
4
122
4
21
4
23
4
94
4
68
4
33
4
83
4
29
4
14
4
1
4
3
4
13
4
93
4
43
4
47
4
34
4
6
4
7
4
CELL_DATA 303
VECTORS force double
7.24277 17.0177 -99.0815 
-42.4891 -11.8833 -87.2167 
-20.0447 2.2481 -9.49443 
1.35039 -3.09193 -30.8902 
-3.71896 23.4985 -47.9602 
-27.2163 -25.605 4.75711 
127.199 -106.227 -219.53 
-0.253381 -3.42731 -4.15744 
-0.150302 4.6272 -6.92985 
-1.31227 20.652 -82.0715 
-342.789 52.2185 -171.113 
-195.057 240.284 451.475 
30.2802 -217.045 -539.572 
-1.5783 -0.23805 -2.08081 
-4.80063 -3.46875 -5.0192 
134.894 9.32541 -676.792 
-1.57475 132.4 -206.564 
18.0465 62.1293 -182.479 
3.81786 -5.13244 -38.1995 
-6.81359 10.8185 -29.603 
10.6383 -6.32216 -27.6339 
7.10673 -9.90668 -13.7993 
98.2218 23.3349 -21.1973 
-6.51847 -8.0599 20.3056 
48.392 27.7302 -84.0485 
15.1297 127.668 239.654 
-83.3441 -63.7313 -0.851375 
-2.14342 -27.1534 -4.42691 
228.377 44.5476 92.6337 
153.742 26.1873 -130.034 
13.6756 23.8637 -84.396 
-36.3419 -10.1842 -60.8595 
-6.88052 -30.3848 1.01955 
-0.284372 0.62755 -26.9076 
1.19707 1.6419 1.59679 
37.4467 58.1168 18.6697 
185.452 37.9476 -382.305 
-0.347013 22.7007 38.2862 
-45.9682 -16.9097 -108.488 
81.3386 -366.121 -56.4824 
264.761 -214.558 -976.335 
-1.59115 -1.2275 5.17964 
-231.608 479.289 1001.34 
6.00188 -10.7058 0.794687 
-1.51028 0.651732 -15.0341 
-19.9152 -6.79116 -19.9179 
-3.5404 19.3168 7.26841 
-18.0476 7.21171 -76.0683 
4.70889 -4.46251 -13.2471 
-124.6 -310.975 -560.32 
46.9497 6.91397 -151.128 
136.638 -340.626 -126.866 
10.7517 -82.1446 -69.6462 
-6.93636 -0.087742 -15.175 
41.3372 -5.80935 -49.8167 
78.0417 141.35 -749.828 
-119.644 -16.2661 105.331 
-10.3554 -16.88 -59.4161 
9.34883 1.81863 -14.4194 
6.55167 12.6453 -66.3801 
-10.4981 -2.73776 -12.9939 
-8.21898 -2.95284 -29.2788 
-3.24611 -3.08047 14.1985 
-9.15734 19.661 -38.1387 
159.653 53.55 -274.91 
-2.02411 -1.21679 8.31098 
184.247 73.9777 -18.3198 
23.4431 8.30475 -17.6241 
94.8861 -37.5638 -6.9351 
137.827 -42.2069 -908.865 
304.427 -64.3134 -672.545 
-2.45113 -2.84197 39.861 
-11.4658 -6.27629 -9.50083 
2.9111 0.281117 0.597736 
-26.9928 5.57592 -15.9573 
145.634 56.4872 -3.02439 
-12.0967 -67.4626 148.669 
-122.749 2.74095 132.198 
-64.5895 -8.57145 10.5758 
-5.51565 -3.22014 -16.8944 
-21.2864 -26.2783 -46.272 
4.63159 -2.78665 -9.7031 
6.60905 5.49372 -54.0332 
-7.10631 -6.4073 63.2522 
3.5273 -1.19872 -28.8832 
-95.7226 -105.853 -173.555 
44.64 14.4964 5.88877 
-137.236 -115.413 93.5992 
-295.626 -50.5579 215.806 
33.9341 0.431256 -502.694 
17.1239 50.1282 105.385 
-423.848 -115.053 324.307 
4.67689 -4.10288 10.1653 
-1.11206 4.23713 -8.4534 
-91.3516 -74.0004 -161.506 
6.89898 -10.3993 14.3093 
-24.5367 10.044 33.0734 
-15.5106 -21.9371 -35.6856 
-11.3284 13.224 -8.25726 
-18.4619 -20.3919 -19.2944 
4.14104 4.52665 -14.7405 
225.53 -1.4958 309.817 
410.728 188.324 1225.81 
-17.7395 -48.1234 -28.667 
-95.9033 -68.7367 -174.018 
22.1795 90.0653 -158.23 
-2.34465 116.112 -20.8121 
35.7632 -1.76124 35.627 
-7.62045 -13.5567 -48.5567 
1.09336 -1.26678 -1.08114 
0.061699 -2.14111 -4.50738 
4.18088 -0.498231 -8.71556 
-0.211387 -2.44192 -13.4376 
-87.6103 -139.385 40.5632 
55.205 -8.54823 175.904 
5.19766 -0.688915 -14.3454 
3.89071 36.3718 196.941 
7.70495 -5.93922 52.9595 
-111.384 -793.721 -313.647 
-61.3584 -416.638 -1251.17 
32.4455 1.44663 5.98693 
-17.0978 5.00668 -15.6164 
-55.8 -37.4938 -287.579 
-50.2451 -94.4719 -196.106 
103.328 -268.344 -386.818 
396.292 459.756 37.342 
-683.849 -1870.55 -347.711 
392.524 666.361 299.01 
-0.813003 141.072 -90.8663 
-178.051 -269.691 -80.299 
-73.9859 -84.1713 -35.8377 
104.76 573.292 302.846 
-4.4994 -16.4785 -15.7598 
2.34977 -9.50617 -22.7019 
-96.9726 -9.66884 26.4124 
-53.7437 -3.60462 -9.372 
-82.7114 88.5825 58.8597 
-62.1226 -46.4092 -13.4499 
1.04683 2.9931 -5.88495 
-20.0387 204.112 45.3682 
-8.90776 138.409 47.5448 
15.5425 129.407 -50.8418 
13.3852 -1.3408 -24.9784 
-74.8536 228.717 164.038 
-145.262 535.395 28.4435 
0.74549 1.97331 -36.3629 
21.1583 407.092 368.232 
-3.88145 -1.61388 7.72347 
-14.6476 35.7773 478.656 
29.6413 83.8812 259.456 
-26.9954 244.867 252.312 
9.17119 -2.40469 -1.37412 
3.5578 34.5558 -114.325 
1.68545 -0.628117 -1.51114 
0.0751934 5.25265 -0.45872 
14.6776 -2.81736 -38.7209 
-60.5505 -45.2237 82.9549 
-5.73042 -5.46802 -5.97209 
-1.64793 2.20513 -15.3553 
-0.893267 2.83645 1.41823 
-6.4458 6.20801 -8.18223 
3.13095 0.413269 -1.46666 
-217.952 151.555 -541.921 
-57.446 -165.743 -137.562 
28.3802 24.1121 39.2127 
-4.82731 -2.92385 5.72222 
-37.2357 -44.2666 -76.9124 
-2.34343 -5.93272 -16.4416 
-12.2889 -10.8419 -8.79158 
-387.963 342.933 714.278 
6.36763 -16.9174 -3.90101 
5.2146 -2.6112 28.9272 
24.8844 38.8855 -61.0945 
127.747 154.335 -226.18 
7.0488 -1.68373 8.93348 
-14.9041 3.80592 15.2363 
-0.257695 -0.304987 -0.884011 
-101.577 -60.6464 120.226 
365.973 45.7694 -574.549 
-1.49118 42.4287 -70.8751 
-183.64 -672.083 205.473 
-11.1788 5.4301 -79.427 
-10.3385 7.16686 -30.7323 
-0.448506 -0.331219 1.27212 
279.313 56.9377 -517.409 
-3.56262 -96.1066 -268.007 
47.7086 -9.83265 -210.888 
8.24965 -4.19283 -29.8835 
11.9869 -1.4114 13.6141 
0.0241963 -2.21146 2.53708 
1.40494 11.2533 -26.8995 
19.7408 -11.5305 76.753 
-0.278735 2.56138 24.3491 
11.9652 -17.5857 -166.203 
-48.7764 22.4349 -104.615 
2.24472 3.77393 -6.35814 
-0.47913 0.203515 1.12617 
-13.8333 -93.7477 -2.83842 
8.07205 5.17219 -38.9892 
-9.36658 -49.567 -26.5943 
0.672102 -8.51233 10.427 
-0.561912 -5.18996 -23.5615 
6.97342 11.379 -36.9333 
-20.678 -9.02191 -0.944119 
-33.1288 9.53289 -126.497 
-19.8883 -36.9104 11.8674 
-7.19952 7.63127 7.45758 
-30.2377 -22.19 -106.336 
-0.765674 -7.91969 -18.5847 
10.416 10.9812 -18.1844 
0.285744 0.602926 -8.9448 
-2.22871 5.00594 -23.1741 
-0.553837 0.768487 -2.17291 
-3.2443 4.72579 -4.03463 
1.8567 -1.52763 8.93316 
14.1135 4.47432 -54.6681 
-25.3969 -5.25219 -37.4938 
2.12204 0.471206 8.39038 
-49.5027 -7.31359 -81.4028 
-1.12132 1.72685 -4.61742 
8.23349 7.81053 -31.7493 
0.103878 -0.77473 -0.296268 
-1.89289 0.861273 3.66288 
0.61286 2.88441 -7.7142 
-2.18559 -3.40208 8.73394 
-69.4026 -1.18651 -39.9942 
0.0266737 -2.15983 0.517296 
-5.87664 -0.595828 26.5046 
4.82109 -15.4764 -4.16638 
9.34348 -13.0285 -5.16813 
1.71115 -2.44931 4.98137 
8.13842 -4.86317 7.44287 
-141.564 -101.543 35.6377 
-1.90867 -1.04646 28.0395 
-3.76474 0.869562 14.3857 
2.31836 -2.42451 10.243 
-30.8918 -7.52801 11.0119 
-80.412 -12.3997 17.0024 
-28.3803 98.1244 16.6057 
-1.82671 1.6872 -5.46272 
-276.397 -4.09659 508.321 
-7.91017 -0.0751276 0.885479 
-15.7107 -28.6424 -5.37466 
-20.7607 -8.03619 -10.764 
-23.3053 28.6767 -9.1995 
9.90784 28.5992 -4.5698 
14.532 6.73055 -34.8649 
34.4008 76.1264 -62.8012 
2.78756 4.9966 -1.05989 
-11.3567 -10.1779 10.8463 
-0.986715 -14.2482 4.83851 
1.83983 -10.775 22.7976 
0.00304802 -3.33551 -3.30502 
-126.186 58.9437 217.206 
-1.42596 -8.41315 11.8369 
21.2263 -72.9517 -1.78268 
-529.066 534.463 316.349 
2.38963 1.9835 1.93606 
-13.2245 8.86691 40.6497 
-1.82092 2.90812 81.116 
7.40266 6.64413 69.0327 
-2.49024 200.394 344.653 
-0.222785 -10.0066 117.608 
-10.4967 -12.8833 78.8595 
17.1862 -23.5433 -2.34838 
-44.6411 -15.4208 42.7384 
-298.619 235.799 554.802 
-40.5352 16.8086 72.4089 
6.70842 -12.6487 27.2852 
4.25444 -18.8614 74.5921 
11.6075 -13.9271 57.9044 
-13.9371 2.73843 24.8066 
43.0247 21.4956 104.992 
-19.0815 -16.8177 90.1069 
28.222 4.03287 110.287 
1.02448 -1.18462 13.0841 
15.7046 7.47588 37.1442 
0.00919756 -8.6355 20.7931 
1.56357 0.145667 18.9645 
-2.32682 4.82303 53.2926 
-34.1694 -348.016 583.519 
13.2176 -1.07403 22.3504 
-6.52949 8.59015 25.3094 
63.4434 17.2451 176.233 
-7.5305 11.6227 66.5161 
1.49283e-14 2.65459e-14 13.6117 
11.2096 -105.456 212.953 
-18.6905 -18.685 73.567 
-0.095546 3.47012 16.6953 
62.9012 7.38578 9.66041 
16.7831 -8.74484 100.138 
18.1919 -33.0427 -0.889184 
-1.22656e-15 -2.38274e-15 13.6117 
0.303458 -2.94722 14.6521 
4.83497e-16 -3.07522e-16 13.6117 
3.75575 12.4003 70.7815 
-4.92011 -135.271 -134.315 
-197.131 165.027 479.285 
37.0351 -6.21978 14.8248 
-9.73332e-16 1.71264e-14 13.6117 
-28.4204 28.4201 64.4006 
5.91411 1.64408 24.2497 
0.556372 3.20315 17.2582 
VECTORS moment double
0 0 0 
0 0 0 
0 0 0 
0 0 0 
0 0 0 
0 0 0 
0 0 0 
0 0 0 
0 0 0 
0 0 0 
0 0 0 
0 0 0 
0 0 0 
0 0 0 
0 0 0 
0 0 0 
0 0 0 
0 0 0 
0 0 0 
0 0 0 
0 0 0 
0 0 0 
0 0 0 
0 0 0 
0 0 0 
0 0 0 
0 0 0 
0 0 0 
0 0 0 
0 0 0 
0 0 0 
0 0 0 
0 0 0 
0 0 0 
0 0 0 
0 0 0 
0 0 0 
0 0 0 
0 0 0 
0 0 0 
0 0 0 
0 0 0 
0 0 0 
0 0 0 
0 0 0 
0 0 0 
0 0 0 
0 0 0 
0 0 0 
0 0 0 
0 0 0 
0 0 0 
0 0 0 
0 0 0 
0 0 0 
0 0 0 
0 0 0 
0 0 0 
0 0 0 
0 0 0 
0 0 0 
0 0 0 
0 0 0 
0 0 0 
0 0 0 
0 0 0 
0 0 0 
0 0 0 
0 0 0 
0 0 0 
0 0 0 
0 0 0 
0 0 0 
0 0 0 
0 0 0 
0 0 0 
0 0 0 
0 0 0 
0 0 0 
0 0 0 
0 0 0 
0 0 0 
0 0 0 
0 0 0 
0 0 0 
0 0 0 
0 0 0 
0 0 0 
0 0 0 
0 0 0 
0 0 0 
0 0 0 
0 0 0 
0 0 0 
0 0 0 
0 0 0 
0 0 0 
0 0 0 
0 0 0 
0 0 0 
0 0 0 
0 0 0 
0 0 0 
0 0 0 
0 0 0 
0 0 0 
0 0 0 
0 0 0 
0 0 0 
0 0 0 
0 0 0 
0 0 0 
0 0 0 
0 0 0 
0 0 0 
0 0 0 
0 0 0 
0 0 0 
0 0 0 
0 0 0 
0 0 0 
0 0 0 
0 0 0 
0 0 0 
0 0 0 
0 0 0 
0 0 0 
0 0 0 
0 0 0 
0 0 0 
0 0 0 
0 0 0 
0 0 0 
0 0 0 
0 0 0 
0 0 0 
0 0 0 
0 0 0 
0 0 0 
0 0 0 
0 0 0 
0 0 0 
0 0 0 
0 0 0 
0 0 0 
0 0 0 
0 0 0 
0 0 0 
0 0 0 
0 0 0 
0 0 0 
0 0 0 
0 0 0 
0 0 0 
0 0 0 
0 0 0 
0 0 0 
0 0 0 
0 0 0 
0 0 0 
0 0 0 
0 0 0 
0 0 0 
0 0 0 
0 0 0 
0 0 0 
0 0 0 
0 0 0 
0 0 0 
0 0 0 
0 0 0 
0 0 0 
0 0 0 
0 0 0 
0 0 0 
0 0 0 
0 0 0 
0 0 0 
0 0 0 
0 0 0 
0 0 0 
0 0 0 
0 0 0 
0 0 0 
0 0 0 
0 0 0 
0 0 0 
0 0 0 
0 0 0 
0 0 0 
0 0 0 
0 0 0 
0 0 0 
0 0 0 
0 0 0 
0 0 0 
0 0 0 
0 0 0 
0 0 0 
0 0 0 
0 0 0 
0 0 0 
0 0 0 
0 0 0 
0 0 0 
0 0 0 
0 0 0 
0 0 0 
0 0 0 
0 0 0 
0 0 0 
0 0 0 
0 0 0 
0 0 0 
0 0 0 
0 0 0 
0 0 0 
0 0 0 
0 0 0 
0 0 0 
0 0 0 
0 0 0 
0 0 0 
0 0 0 
0 0 0 
0 0 0 
0 0 0 
0 0 0 
0 0 0 
0 0 0 
0 0 0 
0 0 0 
0 0 0 
0 0 0 
0 0 0 
0 0 0 
0 0 0 
0 0 0 
0 0 0 
0 0 0 
0 0 0 
0 0 0 
0 0 0 
0 0 0 
0 0 0 
0 0 0 
0 0 0 
0 0 0 
0 0 0 
0 0 0 
0 0 0 
0 0 0 
0 0 0 
0 0 0 
0 0 0 
0 0 0 
0 0 0 
0 0 0 
0 0 0 
0 0 0 
0 0 0 
0 0 0 
0 0 0 
0 0 0 
0 0 0 
0 0 0 
0 0 0 
0 0 0 
0 0 0 
0 0 0 
0 0 0 
0 0 0 
0 0 0 
0 0 0 
0 0 0 
0 0 0 
0 0 0 
0 0 0 
0 0 0 
0 0 0 
0 0 0 
0 0 0 
0 0 0 
0 0 0 
0 0 0 
0 0 0 
0 0 0 
0 0 0 
0 0 0 
0 0 0 
0 0 0 
0 0 0 
0 0 0 
0 0 0 
0 0 0 
0 0 0 
0 0 0 
0 0 0 
0 0 0 
0 0 0 
0 0 0 
0 0 0 
0 0 0 
SCALARS num_collisions int 1
LOOKUP_TABLE default
1 
1 
1 
1 
1 
1 
1 
1 
1 
1 
1 
1 
1 
1 
1 
1 
1 
1 
1 
1 
1 
1 
1 
1 
1 
1 
1 
1 
1 
1 
1 
1 
1 
1 
1 
1 
1 
1 
1 
1 
1 
1 
1 
1 
1 
1 
1 
1 
1 
1 
1 
1 
1 
1 
1 
1 
1 
1 
1 
1 
1 
1 
1 
1 
1 
1 
1 
1 
1 
1 
1 
1 
1 
1 
1 
1 
1 
1 
1 
1 
1 
1 
1 
1 
1 
1 
1 
1 
1 
1 
1 
1 
1 
1 
1 
1 
1 
1 
1 
1 
1 
1 
1 
1 
1 
1 
1 
1 
1 
1 
1 
1 
1 
1 
1 
1 
1 
1 
1 
1 
1 
1 
1 
1 
1 
1 
1 
1 
1 
1 
1 
1 
1 
1 
1 
1 
1 
1 
1 
1 
1 
1 
1 
1 
1 
1 
1 
1 
1 
1 
1 
1 
1 
1 
1 
1 
1 
1 
1 
1 
1 
1 
1 
1 
1 
1 
1 
1 
1 
1 
1 
1 
1 
1 
1 
1 
1 
1 
1 
1 
1 
1 
1 
1 
1 
1 
1 
1 
1 
1 
1 
1 
1 
1 
1 
1 
1 
1 
1 
1 
1 
1 
1 
1 
1 
1 
1 
1 
1 
1 
1 
1 
1 
1 
1 
1 
1 
1 
1 
1 
1 
1 
1 
1 
1 
1 
1 
1 
1 
1 
1 
1 
1 
1 
1 
1 
1 
1 
1 
1 
1 
1 
1 
1 
1 
1 
1 
1 
1 
1 
1 
1 
1 
1 
1 
1 
1 
1 
1 
1 
1 
1 
1 
1 
1 
1 
1 
1 
1 
1 
1 
1 
1 
1 
1 
1 
1 
1 
1 
1 
1 
1 
1 
1 
1 
1 
1 
1 
1 
1 
1 
1 
1 
1 
1 
1 
1 
1 
1 
1 
1 
1 
1 
VECTORS pos double
-0.402614 -0.408854 -0.424838 
-0.395864 -0.0137407 -0.422981 
-0.414982 0.100486 -0.419054 
-0.450003 0.147361 -0.409434 
-0.444027 0.31136 -0.416096 
-0.260843 -0.4229 -0.411248 
-0.266823 -0.193743 -0.425178 
-0.191045 0.0405011 -0.439679 
-0.181066 0.117109 -0.465957 
-0.224107 0.335573 -0.444476 
-0.0030126 -0.408957 -0.463975 
-0.0799685 -0.38263 -0.436622 
-0.152581 -0.104864 -0.412659 
-0.00573774 -0.0862946 -0.445897 
-0.031938 -0.0513309 -0.423274 
0.0445626 0.227563 -0.459912 
0.071133 0.155559 -0.423244 
-0.0700872 0.309525 -0.425332 
0.216318 -0.413593 -0.424027 
0.171713 -0.218971 -0.427816 
0.194425 0.00785004 -0.424026 
0.142122 0.251713 -0.445833 
0.296125 0.390349 -0.364318 
0.33352 0.418193 -0.44951 
0.423711 -0.428668 -0.413295 
0.434632 -0.32798 -0.407943 
0.314785 0.03363 -0.450038 
0.296118 -0.0338353 -0.441097 
0.352316 0.0779807 -0.411448 
0.415513 0.114883 -0.422312 
-0.40911 -0.428914 -0.354343 
-0.354093 -0.0141736 -0.374604 
-0.4445 0.225773 -0.375492 
-0.447587 0.137962 -0.337115 
-0.298512 -0.360919 -0.382413 
-0.209386 -0.213411 -0.365599 
-0.265404 -0.19503 -0.373931 
-0.116932 -0.136947 -0.158151 
-0.29834 0.130969 -0.434475 
-0.18678 0.418007 -0.402523 
-0.093359 -0.350915 -0.368482 
0.315505 -0.208581 -0.129156 
0.000334603 0.240098 -0.407018 
0.0824698 0.346256 -0.402766 
0.203973 -0.429417 -0.356094 
0.239053 -0.368607 -0.365195 
0.177872 -0.188405 -0.342035 
0.162922 -0.268341 -0.40921 
0.178859 0.0359934 -0.356877 
0.223371 0.166343 -0.452838 
0.149049 0.126468 -0.429115 
0.249606 0.346002 -0.326633 
0.268735 0.413056 -0.289716 
0.423707 -0.44919 -0.334034 
0.373132 -0.430747 -0.337332 
0.44417 -0.333611 -0.320886 
0.449974 0.0968862 -0.366302 
0.439288 0.356659 -0.411418 
0.373482 0.317703 -0.436828 
-0.416105 -0.448434 -0.277031 
-0.297724 0.00827343 -0.330814 
-0.34399 -0.00768051 -0.290845 
-0.305022 0.253725 -0.403716 
-0.430442 0.267668 -0.333445 
-0.176455 -0.406059 -0.408907 
0.236498 -0.316776 -0.244728 
-0.345774 0.343169 -0.367049 
-0.31148 0.338685 -0.287045 
0.0550176 -0.396733 -0.408522 
-0.0112734 0.254841 -0.36302 
-0.0754265 0.267649 -0.376663 
0.227065 0.363872 -0.434143 
0.243627 -0.43292 -0.267235 
0.151552 -0.421907 -0.33343 
0.0967795 -0.0900576 -0.43417 
0.292625 0.060978 -0.411937 
0.0831685 0.128077 -0.357892 
0.414388 -0.211626 -0.415283 
0.357577 -0.196661 -0.409061 
0.366474 -0.0923668 -0.404891 
0.416102 -0.106007 -0.413335 
0.424555 0.265938 -0.336302 
0.449334 0.22665 -0.31511 
0.445272 0.239178 -0.41405 
-0.393815 -0.451931 -0.201724 
-0.258236 0.145682 -0.359368 
-0.332771 0.0992815 -0.388337 
-0.214679 -0.429786 -0.391137 
-0.166489 -0.394719 -0.365111 
-0.15723 -0.077873 -0.325864 
-0.032931 0.0719773 -0.445079 
-0.327781 0.408837 -0.381288 
0.42852 -0.303354 -0.0516045 
0.449398 -0.347919 0.0313515 
0.0278422 0.0481697 -0.408596 
0.0409417 0.422563 -0.445091 
0.311665 -0.43207 -0.271811 
0.283895 -0.400367 -0.225479 
0.207949 -0.298681 -0.356944 
0.159275 0.111379 -0.251678 
0.129224 0.0219876 -0.234999 
0.299187 0.183194 -0.429267 
0.229256 0.198031 -0.402764 
0.307531 -0.316162 -0.321845 
0.375441 -0.269568 -0.311146 
0.444072 -0.0713051 -0.340225 
0.450009 -0.124168 -0.330427 
0.329949 0.258619 -0.405626 
0.450852 0.378363 -0.339325 
0.431303 0.414079 -0.360566 
-0.383694 -0.400064 -0.144631 
-0.437985 -0.452155 -0.141097 
-0.350438 -0.0116739 -0.2238 
-0.090091 -0.204377 -0.217221 
0.0405128 0.0753162 -0.333528 
0.237573 -0.315133 -0.314873 
0.0364279 0.095663 -0.286646 
0.0214129 0.0989913 -0.212601 
0.229495 0.270723 -0.34353 
0.225978 0.195879 -0.350516 
0.299049 0.449972 -0.260103 
0.366818 0.435999 -0.213218 
0.421704 -0.21581 -0.340203 
-0.226619 0.192546 -0.283372 
-0.34727 0.443237 -0.305289 
-0.271465 0.437207 -0.368246 
-0.190601 -0.375031 -0.279189 
-0.126318 -0.277391 -0.263469 
-0.0762177 -0.259557 -0.205839 
-0.194511 0.355063 -0.364098 
-0.228448 0.29937 -0.362376 
-0.119964 -0.323573 -0.320516 
0.442807 0.0652652 -0.193531 
0.445331 0.100148 -0.146143 
0.238728 -0.0941135 -0.401122 
0.249652 -0.112669 -0.363925 
0.291529 -0.155673 -0.364564 
0.185159 -0.114472 -0.392241 
0.123565 -0.0118869 -0.133424 
0.207013 0.352072 -0.35659 
0.444031 0.00905298 -0.320923 
0.447358 0.0679204 -0.289613 
0.441055 0.390528 -0.253258 
-0.103346 0.230963 -0.322659 
-0.0886905 0.262789 -0.259366 
-0.0218661 -0.354995 -0.275993 
-0.0138871 0.279615 -0.275189 
0.294141 -0.0802426 -0.255248 
0.187219 0.212043 -0.291672 
0.274406 0.162234 -0.298599 
0.419945 -0.228562 -0.257768 
0.343293 -0.0658815 -0.311749 
0.343268 0.0521949 -0.328507 
0.357444 0.270756 -0.306334 
0.448117 0.322642 -0.181278 
0.446537 0.389219 -0.151904 
-0.299043 -0.421077 -0.0657485 
-0.348626 -0.428631 0.0154938 
-0.435394 0.119273 -0.260573 
-0.435188 0.247654 -0.238239 
-0.38798 0.233343 -0.259801 
-0.198501 -0.304464 -0.139569 
-0.160549 0.385862 -0.346464 
-0.162959 0.441539 -0.272867 
-0.0322867 0.235863 -0.187164 
0.332794 -0.155466 -0.198831 
0.220079 0.156081 -0.204142 
0.212586 0.44882 -0.228281 
0.264142 0.449536 -0.214722 
0.435553 -0.349055 -0.244996 
0.405296 -0.147127 -0.262192 
0.349371 -0.0069529 -0.27396 
-0.20402 -0.439527 -0.0238738 
-0.232386 -0.417322 -0.112904 
-0.328838 0.219345 -0.193694 
-0.278989 0.257272 -0.163824 
-0.182502 0.104893 -0.273175 
-0.400681 0.449828 -0.222838 
-0.222036 -0.391351 -0.175957 
-0.0599754 -0.302422 -0.119348 
-0.165558 0.35098 -0.266889 
-0.0472857 -0.377757 -0.223358 
-7.86692e-05 0.199 -0.106387 
0.25693 0.317018 -0.198629 
0.397381 -0.343585 -0.200755 
0.448257 -0.199303 -0.178624 
0.426115 -0.0325416 -0.255597 
0.418987 0.389954 -0.0730257 
-0.172244 -0.346316 -0.0410578 
-0.442977 0.411123 -0.0506543 
-0.138576 -0.404219 -0.174657 
-0.204148 0.204875 -0.190348 
-0.179908 0.163548 -0.105844 
-0.200849 0.322702 -0.171074 
-0.0312019 -0.385628 -0.150026 
-0.00793168 0.460025 -0.245396 
0.10989 0.249788 -0.167936 
0.408878 -0.438299 -0.133415 
0.449116 -0.214882 5.50955e-05 
0.4493 -0.181596 -0.0942015 
0.414101 0.161099 -0.179572 
0.40875 0.410336 0.0188098 
-0.435295 0.449822 -0.129219 
-0.137431 0.399514 -0.165797 
0.00770833 -0.400948 -0.0619544 
0.403526 -0.410833 -0.0979214 
0.233374 -0.0442027 -0.29708 
0.244218 0.199859 -0.12844 
0.449213 0.246223 -0.223182 
0.413516 0.196015 -0.239157 
0.358705 0.424202 0.034027 
0.452415 0.460853 0.0703176 
-0.431036 0.0905353 -0.0838191 
-0.429585 0.0529586 -0.109874 
-0.437809 0.116547 -0.172854 
-0.0129692 -0.40194 0.00383099 
0.0580495 -0.396899 0.00697108 
-0.0433544 0.379977 -0.128208 
0.259818 0.192506 -0.0495795 
-0.408371 0.00421335 -0.0404052 
-0.0385363 -0.395582 0.0782227 
0.37706 0.234951 -0.102585 