# vtk DataFile Version 2.0
Generated by NetDEM
ASCII 
DATASET POLYDATA
POINTS 384 double
-0.416909 -0.405433 -0.462868 
-0.403153 -0.399572 -0.388347 
-0.403333 -0.203333 -0.458368 
-0.403333 -0.203333 -0.366729 
-0.410386 -0.00756185 -0.463696 
-0.408338 -0.00952914 -0.389483 
-0.402763 0.397237 -0.458368 
-0.402763 0.397237 -0.366729 
-0.265607 -0.432313 -0.459464 
-0.304504 -0.407715 -0.386543 
-0.203538 -0.203538 -0.458368 
-0.203538 -0.203538 -0.366729 
-0.203218 -0.00321788 -0.458368 
-0.203218 -0.00321788 -0.366729 
-0.176681 0.207953 -0.457172 
-0.186755 0.200053 -0.377731 
-0.246795 0.369087 -0.46505 
-0.15655 0.414551 -0.445032 
-0.0391733 -0.396331 -0.455435 
-0.0527183 -0.388204 -0.380795 
-0.00366947 -0.203669 -0.458368 
-0.00366947 -0.203669 -0.366729 
-0.00360232 -0.00360232 -0.458368 
-0.00360232 -0.00360232 -0.366729 
0.189862 -0.398543 -0.464226 
0.190466 -0.39725 -0.391699 
0.173883 -0.211265 -0.464335 
0.180098 -0.193776 -0.385821 
0.173665 -0.00948584 -0.461934 
0.187152 -0.0118189 -0.383719 
0.396752 -0.403011 -0.450535 
0.399091 -0.304572 -0.433395 
0.396752 -0.403011 -0.450535 
0.396675 -0.450781 -0.363269 
-0.403153 -0.399572 -0.388347 
-0.402364 -0.403471 -0.316104 
-0.403333 -0.203333 -0.366729 
-0.403333 -0.203333 -0.275084 
-0.408338 -0.00952914 -0.389483 
-0.38522 -0.00270755 -0.311429 
-0.402763 0.397237 -0.366729 
-0.402763 0.397237 -0.275084 
-0.203538 -0.203538 -0.366729 
-0.203538 -0.203538 -0.275084 
-0.203218 -0.00321788 -0.366729 
-0.203218 -0.00321788 -0.275084 
-0.15655 0.414551 -0.445032 
-0.206072 0.450241 -0.38325 
-0.0527183 -0.388204 -0.380795 
0.0261033 -0.427721 -0.338338 
-0.0527183 -0.388204 -0.380795 
-0.147006 -0.410543 -0.371016 
-0.00366947 -0.203669 -0.366729 
-0.00366947 -0.203669 -0.275084 
-0.00360232 -0.00360232 -0.366729 
-0.00360232 -0.00360232 -0.275084 
0.190466 -0.39725 -0.391699 
0.179838 -0.396049 -0.318354 
0.180098 -0.193776 -0.385821 
0.147592 -0.160305 -0.311498 
0.187152 -0.0118189 -0.383719 
0.189096 0.005072 -0.309472 
0.304868 0.437827 -0.252641 
0.398738 0.462363 -0.312781 
0.396675 -0.450781 -0.363269 
0.396462 -0.433348 -0.265737 
0.398211 -0.32813 -0.313762 
0.399455 -0.259469 -0.241761 
0.402933 0.357584 -0.450167 
0.410321 0.381803 -0.348548 
-0.402364 -0.403471 -0.316104 
-0.414572 -0.408092 -0.242689 
-0.403333 -0.203333 -0.275084 
-0.403333 -0.203333 -0.183432 
-0.38522 -0.00270755 -0.311429 
-0.380432 0.00213932 -0.235185 
-0.402763 0.397237 -0.275084 
-0.402763 0.397237 -0.183432 
-0.203538 -0.203538 -0.275084 
-0.203538 -0.203538 -0.183432 
-0.203218 -0.00321788 -0.275084 
-0.203218 -0.00321788 -0.183432 
-0.186755 0.200053 -0.377731 
-0.110223 0.177933 -0.372457 
-0.186755 0.200053 -0.377731 
-0.174649 0.165533 -0.279586 
-0.206072 0.450241 -0.38325 
-0.242501 0.438114 -0.303736 
0.0261033 -0.427721 -0.338338 
0.0943356 -0.43607 -0.287037 
-0.00366947 -0.203669 -0.275084 
-0.00366947 -0.203669 -0.183432 
-0.00360232 -0.00360232 -0.275084 
-0.00360232 -0.00360232 -0.183432 
-0.0350223 0.24598 -0.352198 
0.0492711 0.285142 -0.305998 
0.179838 -0.396049 -0.318354 
0.204409 -0.39678 -0.229472 
0.179838 -0.396049 -0.318354 
0.0943356 -0.43607 -0.287037 
0.189096 0.005072 -0.309472 
0.192619 0.005379 -0.23622 
0.396462 -0.433348 -0.265737 
0.396469 -0.353486 -0.207483 
0.395616 -0.0812052 -0.300018 
0.399102 -0.160214 -0.238993 
-0.414572 -0.408092 -0.242689 
-0.414319 -0.410599 -0.154962 
-0.403333 -0.203333 -0.183432 
-0.403333 -0.203333 -0.0917749 
-0.380432 0.00213932 -0.235185 
-0.388044 -0.00487001 -0.154603 
-0.402763 0.397237 -0.183432 
-0.402763 0.397237 -0.0917749 
-0.203538 -0.203538 -0.183432 
-0.203538 -0.203538 -0.0917749 
-0.203218 -0.00321788 -0.183432 
-0.203218 -0.00321788 -0.0917749 
-0.110223 0.177933 -0.372457 
-0.00669502 0.154178 -0.34042 
-0.242501 0.438114 -0.303736 
-0.262765 0.368291 -0.260451 
0.0943356 -0.43607 -0.287037 
0.0435362 -0.388556 -0.23958 
-0.00366947 -0.203669 -0.183432 
-0.00366947 -0.203669 -0.0917748 
-0.00360232 -0.00360232 -0.183432 
-0.00360232 -0.00360232 -0.0917749 
0.204409 -0.39678 -0.229472 
0.20094 -0.40106 -0.15804 
0.192619 0.005379 -0.23622 
0.186364 0.00222086 -0.163509 
0.396469 -0.353486 -0.207483 
0.396214 -0.291298 -0.131897 
0.396469 -0.353486 -0.207483 
0.39654 -0.396826 -0.118333 
0.399102 -0.160214 -0.238993 
0.390372 -0.087461 -0.171319 
0.399102 -0.160214 -0.238993 
0.399455 -0.259469 -0.241761 
-0.414319 -0.410599 -0.154962 
-0.41341 -0.405048 -0.0788631 
-0.403333 -0.203333 -0.0917749 
-0.403333 -0.203333 -0.00011121 
-0.388044 -0.00487001 -0.154603 
-0.428709 -0.00556683 -0.092022 
-0.402763 0.397237 -0.0917749 
-0.402763 0.397237 -0.000111243 
-0.203538 -0.203538 -0.0917749 
-0.203538 -0.203538 -0.000111218 
-0.203218 -0.00321788 -0.0917749 
-0.203218 -0.00321788 -0.000111211 
-0.262765 0.368291 -0.260451 
-0.188321 0.374791 -0.195953 
0.0435362 -0.388556 -0.23958 
-0.0279704 -0.382663 -0.186555 
-0.00366947 -0.203669 -0.0917748 
-0.00366947 -0.203669 -0.000111193 
-0.00360232 -0.00360232 -0.0917749 
-0.00360232 -0.00360232 -0.000111209 
-0.0219379 0.216365 -0.265196 
0.00825795 0.209563 -0.192038 
0.20094 -0.40106 -0.15804 
0.209481 -0.399247 -0.0788357 
0.186364 0.00222086 -0.163509 
0.182935 -0.0013765 -0.0865479 
0.39654 -0.396826 -0.118333 
0.396794 -0.439357 -0.0282867 
0.398738 0.462363 -0.312781 
0.424232 0.418237 -0.234188 
-0.41341 -0.405048 -0.0788631 
-0.410126 -0.400369 -0.000577405 
-0.403333 -0.203333 -0.00011121 
-0.403333 -0.203333 0.0915585 
-0.428709 -0.00556683 -0.092022 
-0.426229 -0.00313474 0.00785692 
-0.402763 0.397237 -0.000111243 
-0.402763 0.397237 0.0915584 
-0.203538 -0.203538 -0.000111218 
-0.203538 -0.203538 0.0915585 
-0.203218 -0.00321788 -0.000111211 
-0.203218 -0.00321788 0.0915585 
-0.188321 0.374791 -0.195953 
-0.20446 0.400889 -0.125909 
-0.0279704 -0.382663 -0.186555 
-0.0249241 -0.400894 -0.0911844 
-0.00366947 -0.203669 -0.000111193 
-0.00366947 -0.203669 0.0915585 
-0.00360232 -0.00360232 -0.000111209 
-0.00360232 -0.00360232 0.0915585 
0.00825795 0.209563 -0.192038 
0.0179906 0.187198 -0.124509 
0.209481 -0.399247 -0.0788357 
0.187898 -0.410449 -0.00951731 
0.182935 -0.0013765 -0.0865479 
0.186883 -0.00322058 -0.00750466 
0.396794 -0.439357 -0.0282867 
0.396703 -0.398251 0.0623003 
-0.410126 -0.400369 -0.000577405 
-0.41004 -0.400942 0.0771233 
-0.403333 -0.203333 0.0915585 
-0.403333 -0.203333 0.183234 
-0.426229 -0.00313474 0.00785692 
-0.414685 0.00080087 0.0785006 
-0.402763 0.397237 0.0915584 
-0.402763 0.397237 0.183234 
-0.203538 -0.203538 0.0915585 
-0.203538 -0.203538 0.183234 
-0.203218 -0.00321788 0.0915585 
-0.203218 -0.00321788 0.183234 
-0.20446 0.400889 -0.125909 
-0.187628 0.403366 -0.0347779 
-0.0249241 -0.400894 -0.0911844 
-0.0030268 -0.410713 -0.00407648 
-0.00366947 -0.203669 0.0915585 
-0.00366947 -0.203669 0.183234 
-0.00360232 -0.00360232 0.0915585 
-0.00360232 -0.00360232 0.183234 
0.0179906 0.187198 -0.124509 
-0.0242783 0.207518 -0.0427473 
0.187898 -0.410449 -0.00951731 
0.198192 -0.405893 0.0844866 
0.186883 -0.00322058 -0.00750466 
0.192705 -0.00740325 0.0691493 
0.396703 -0.398251 0.0623003 
0.396697 -0.396065 0.161209 
0.395927 0.0109228 -0.13035 
0.394969 0.0253987 -0.0315202 
-0.41004 -0.400942 0.0771233 
-0.412213 -0.404619 0.156097 
-0.403333 -0.203333 0.183234 
-0.403333 -0.203333 0.274916 
-0.414685 0.00080087 0.0785006 
-0.401759 -0.00240466 0.152978 
-0.402763 0.397237 0.183234 
-0.402763 0.397237 0.274916 
-0.203538 -0.203538 0.183234 
-0.203538 -0.203538 0.274916 
-0.203218 -0.00321788 0.183234 
-0.203218 -0.00321788 0.274916 
-0.00366947 -0.203669 0.183234 
-0.00366947 -0.203669 0.274916 
-0.00360232 -0.00360232 0.183234 
-0.00360232 -0.00360232 0.274916 
-0.0242783 0.207518 -0.0427473 
-0.0059871 0.202005 0.0528337 
0.198192 -0.405893 0.0844866 
0.19234 -0.404884 0.155688 
0.192705 -0.00740325 0.0691493 
0.193156 -0.00783243 0.143569 
0.396697 -0.396065 0.161209 
0.396718 -0.406613 0.258923 
0.394969 0.0253987 -0.0315202 
0.395216 -0.029445 0.051909 
0.394969 0.0253987 -0.0315202 
0.405184 0.123649 -0.0180287 
-0.412213 -0.404619 0.156097 
-0.404848 -0.40622 0.238259 
-0.403333 -0.203333 0.274916 
-0.403333 -0.203333 0.366604 
-0.401759 -0.00240466 0.152978 
-0.403832 -0.00223225 0.232051 
-0.402763 0.397237 0.274916 
-0.402763 0.397237 0.366604 
-0.203538 -0.203538 0.274916 
-0.203538 -0.203538 0.366604 
-0.203218 -0.00321788 0.274916 
-0.203218 -0.00321788 0.366604 
-0.00366947 -0.203669 0.274916 
-0.00366947 -0.203669 0.366604 
-0.00360232 -0.00360232 0.274916 
-0.00360232 -0.00360232 0.366604 
-0.0059871 0.202005 0.0528337 
0.00838286 0.192641 0.157506 
0.19234 -0.404884 0.155688 
0.202084 -0.39892 0.233486 
0.193156 -0.00783243 0.143569 
0.194474 -0.00450553 0.226079 
0.396718 -0.406613 0.258923 
0.396717 -0.403466 0.356492 
-0.404848 -0.40622 0.238259 
-0.407513 -0.40459 0.312906 
-0.403333 -0.203333 0.458299 
-0.403333 -0.203333 0.366604 
-0.402763 0.397237 0.458299 
-0.402763 0.397237 0.366604 
-0.203538 -0.203538 0.458299 
-0.203538 -0.203538 0.366604 
-0.203218 -0.00321788 0.458299 
-0.203218 -0.00321788 0.366604 
-0.00257954 -0.400863 0.190543 
-0.00423667 -0.405455 0.28671 
-0.00366947 -0.203669 0.458299 
-0.00366947 -0.203669 0.366604 
-0.00360232 -0.00360232 0.458299 
-0.00360232 -0.00360232 0.366604 
0.00838286 0.192641 0.157506 
-0.00206147 0.198895 0.257225 
0.202084 -0.39892 0.233486 
0.194112 -0.402125 0.307991 
0.194474 -0.00450553 0.226079 
0.192791 -0.00321664 0.298555 
0.396712 -0.402765 0.45359 
0.396717 -0.403466 0.356492 
0.0261033 -0.427721 -0.338338 
0.0339468 -0.500015 -0.31618 
0.396675 -0.450781 -0.363269 
0.396675 -0.5 -0.363297 
-0.206072 0.450241 -0.38325 
-0.185531 0.500006 -0.388495 
0.398738 0.462363 -0.312781 
0.405067 0.500017 -0.337785 
-0.203538 -0.203538 -0.458368 
-0.203538 -0.203538 -0.5 
0.173665 -0.00948584 -0.461934 
0.205669 -0.00248661 -0.500036 
-0.410386 -0.00756185 -0.463696 
-0.395044 -0.00931476 -0.500027 
0.402933 0.357584 -0.450167 
0.392053 0.351502 -0.500006 
-0.181358 -0.360104 -0.454175 
-0.191538 -0.364164 -0.500003 
-0.0407955 0.396108 -0.464353 
-0.0690238 0.358848 -0.500001 
-0.416909 -0.405433 -0.462868 
-0.392079 -0.405148 -0.500042 
0.00276836 0.255705 -0.442781 
-0.028292 0.214728 -0.500003 
0.189862 -0.398543 -0.464226 
0.206072 -0.401215 -0.500074 
0.391098 -0.037697 -0.450007 
0.39112 -0.0377027 -0.5 
0.173883 -0.211265 -0.464335 
0.171906 -0.19443 -0.500007 
-0.246795 0.369087 -0.46505 
-0.227665 0.368712 -0.500005 
-0.265607 -0.432313 -0.459464 
-0.260743 -0.419198 -0.500007 
-0.00360232 -0.00360232 -0.458368 
-0.00360232 -0.00360232 -0.5 
0.284888 0.0630298 -0.440384 
0.295676 0.0525178 -0.500003 
-0.403333 -0.203333 -0.458368 
-0.403333 -0.203333 -0.5 
-0.301666 0.160801 -0.465044 
-0.295353 0.139485 -0.500001 
-0.00366947 -0.203669 -0.458368 
-0.00366947 -0.203669 -0.5 
0.0513743 0.34513 -0.44119 
0.0554655 0.347518 -0.500003 
-0.203218 -0.00321788 -0.458368 
-0.203218 -0.00321788 -0.5 
-0.176681 0.207953 -0.457172 
-0.195434 0.214341 -0.500009 
-0.0391733 -0.396331 -0.455435 
-0.0191314 -0.387076 -0.50001 
0.370614 0.439801 -0.464644 
0.375493 0.445144 -0.500004 
-0.15655 0.414551 -0.445032 
-0.136766 0.406423 -0.500013 
0.159245 0.210292 -0.46502 
0.148302 0.19464 -0.5 
0.19834 0.112226 -0.455609 
0.208857 0.144596 -0.500002 
-0.402763 0.397237 -0.458368 
-0.402763 0.397237 -0.5 
0.175747 0.354778 -0.445977 
0.18379 0.376967 -0.500032 
0.396752 -0.403011 -0.450535 
0.396752 -0.403051 -0.5 
-0.00366947 -0.203669 0.458299 
-0.00366947 -0.203669 0.5 
-0.203538 -0.203538 0.458299 
-0.203538 -0.203538 0.5 
-0.203218 -0.00321788 0.458299 
-0.203218 -0.00321788 0.5 
-0.403333 -0.203333 0.458299 
-0.403333 -0.203333 0.5 
-0.00360232 -0.00360232 0.458299 
-0.00360232 -0.00360232 0.5 
-0.402763 0.397237 0.458299 
-0.402763 0.397237 0.5 
0.396712 -0.402765 0.45359 
0.396712 -0.402781 0.5 
LINES 192 576
2 0 1
2 2 3
2 4 5
2 6 7
2 8 9
2 10 11
2 12 13
2 14 15
2 16 17
2 18 19
2 20 21
2 22 23
2 24 25
2 26 27
2 28 29
2 30 31
2 32 33
2 34 35
2 36 37
2 38 39
2 40 41
2 42 43
2 44 45
2 46 47
2 48 49
2 50 51
2 52 53
2 54 55
2 56 57
2 58 59
2 60 61
2 62 63
2 64 65
2 66 67
2 68 69
2 70 71
2 72 73
2 74 75
2 76 77
2 78 79
2 80 81
2 82 83
2 84 85
2 86 87
2 88 89
2 90 91
2 92 93
2 94 95
2 96 97
2 98 99
2 100 101
2 102 103
2 104 105
2 106 107
2 108 109
2 110 111
2 112 113
2 114 115
2 116 117
2 118 119
2 120 121
2 122 123
2 124 125
2 126 127
2 128 129
2 130 131
2 132 133
2 134 135
2 136 137
2 138 139
2 140 141
2 142 143
2 144 145
2 146 147
2 148 149
2 150 151
2 152 153
2 154 155
2 156 157
2 158 159
2 160 161
2 162 163
2 164 165
2 166 167
2 168 169
2 170 171
2 172 173
2 174 175
2 176 177
2 178 179
2 180 181
2 182 183
2 184 185
2 186 187
2 188 189
2 190 191
2 192 193
2 194 195
2 196 197
2 198 199
2 200 201
2 202 203
2 204 205
2 206 207
2 208 209
2 210 211
2 212 213
2 214 215
2 216 217
2 218 219
2 220 221
2 222 223
2 224 225
2 226 227
2 228 229
2 230 231
2 232 233
2 234 235
2 236 237
2 238 239
2 240 241
2 242 243
2 244 245
2 246 247
2 248 249
2 250 251
2 252 253
2 254 255
2 256 257
2 258 259
2 260 261
2 262 263
2 264 265
2 266 267
2 268 269
2 270 271
2 272 273
2 274 275
2 276 277
2 278 279
2 280 281
2 282 283
2 284 285
2 286 287
2 288 289
2 290 291
2 292 293
2 294 295
2 296 297
2 298 299
2 300 301
2 302 303
2 304 305
2 306 307
2 308 309
2 310 311
2 312 313
2 314 315
2 316 317
2 318 319
2 320 321
2 322 323
2 324 325
2 326 327
2 328 329
2 330 331
2 332 333
2 334 335
2 336 337
2 338 339
2 340 341
2 342 343
2 344 345
2 346 347
2 348 349
2 350 351
2 352 353
2 354 355
2 356 357
2 358 359
2 360 361
2 362 363
2 364 365
2 366 367
2 368 369
2 370 371
2 372 373
2 374 375
2 376 377
2 378 379
2 380 381
2 382 383
POINT_DATA 384
SCALARS id int 1
LOOKUP_TABLE default
0
25
1
26
2
27
4
29
5
30
6
31
7
32
8
58
9
34
10
35
11
36
12
37
15
40
16
41
17
42
20
21
20
45
25
50
26
51
27
52
29
54
31
56
32
57
34
59
35
60
35
80
36
61
37
62
40
65
41
66
42
67
44
124
45
70
46
121
49
99
50
75
51
76
52
77
54
79
56
81
57
82
58
83
58
108
59
84
60
85
61
86
62
87
63
69
65
90
65
85
67
92
70
95
72
96
75
100
76
101
77
102
79
104
81
106
82
107
83
88
84
109
85
110
86
111
87
112
90
115
92
117
95
146
95
120
96
147
96
121
100
125
101
126
102
127
104
129
106
131
107
132
109
134
110
135
111
136
112
137
113
138
115
140
117
142
120
145
124
149
125
150
126
151
127
152
129
154
131
156
132
157
134
159
135
160
136
161
137
162
138
163
140
165
142
167
145
170
150
175
151
176
152
177
154
179
156
181
157
182
159
184
160
185
161
186
162
187
163
188
165
190
167
192
170
195
172
197
175
200
176
201
177
202
179
204
181
206
182
207
186
211
187
212
188
213
190
215
192
217
195
220
197
222
197
223
200
225
201
251
202
227
204
254
206
256
207
257
211
261
212
262
213
238
215
240
217
242
220
270
225
250
226
251
229
254
231
256
232
257
235
260
236
261
237
262
238
263
240
265
242
267
245
270
60
2
45
2
59
3
124
3
6
4
17
4
2
4
49
4
55
4
14
4
0
4
38
4
15
4
22
4
16
4
9
4
5
4
12
4
68
4
1
4
33
4
11
4
39
4
7
4
8
4
10
4
24
4
34
4
18
4
43
4
4
4
64
4
20
4
236
5
231
5
232
5
226
5
237
5
229
5
245
5
CELL_DATA 192
VECTORS force double
3.58223 0.623389 -150.643 
0 0 -16722.3 
-4.21158 -12.2131 -94.3556 
0 0 -16722.3 
3.80811 0.567547 -12.3705 
0 0 -16722.2 
0 0 -16722.3 
-5.51879 4.09604 -34.8421 
-10.4458 -9.51301 -29.5634 
7.95572 3.92952 -37.5756 
0 0 -16722.3 
0 0 -16722.3 
42.6106 -19.745 -284.42 
-1.15269 1.06922 -15.1292 
2.66569 -3.38308 -138.752 
0.76479 88.8758 -103.446 
1.77212 227.918 -860.449 
4.81316 1.53135 -135.899 
0 0 -16709.5 
-15.5564 -3.66234 -91.2671 
0 0 -16709.5 
0 0 -16709.5 
0 0 -16709.5 
43.9904 3.5589 -67.2185 
-4.52301 -9.39182 -15.8222 
10.0963 -1.26898 -6.08942 
0 0 -16709.5 
0 0 -16709.5 
47.4079 32.3264 -255.314 
-0.66537 0.631261 -3.62792 
3.81383 -0.876306 -120.05 
-11.7124 -6.12193 11.6025 
1.356 -382.99 -1517.6 
-6.72859 -1212.12 -999.414 
-1.72598 -2.42291 -10.8008 
7.45084 1.24027 -124.268 
0 0 -16697 
1.65208 5.66245 -96.7624 
0 0 -16697 
0 0 -16697 
0 0 -16697 
-138.308 15.8695 -44.8381 
-0.733728 3.24219 -13.2124 
10.5858 20.6671 -52.9611 
-46.1719 -51.9309 -19.5243 
0 0 -16697 
0 0 -16697 
-6.14705 -1.02487 -4.81153 
-21.9387 15.1895 -173.233 
78.9212 25.9231 -59.9579 
6.94721 -1.1 -99.3196 
3.08795 -2080.69 -2209.56 
-118.866 514.355 -2191.9 
6.67378 -2.36023 -117.714 
0 0 -16684.8 
12.2226 1.2067 -72.0931 
0 0 -16684.8 
0 0 -16684.8 
0 0 -16684.8 
152.99 -71.0128 -229.361 
5.84841 17.6678 -41.6227 
28.8502 -24.7437 -54.6583 
0 0 -16684.8 
0 0 -16684.8 
-2.99434 2.6142 -142.023 
7.37291 -0.529968 -83.9421 
10.7371 -3912.14 -2429.65 
-3.07945 2041.83 -575.22 
49.2202 -636.552 -468.476 
-14.6154 2267.02 131.58 
3.1913 5.73621 -97.2962 
0 0 -16672.7 
4.03806 6.84128 -66.6072 
0 0 -16672.7 
0 0 -16672.7 
0 0 -16672.7 
2.02017 3.53436 -19.0271 
25.4981 -13.7349 -31.8064 
0 0 -16672.7 
0 0 -16672.7 
2.5986 -0.931361 -1.99725 
2.37485 -4.27299 -100.584 
3.00743 1.46098 -67.6357 
0.165273 -609.806 -803.692 
-0.887464 2.14781 7.96514 
1.08595 10.2586 -82.5746 
0 0 -16660.6 
13.9143 -0.840313 -49.4783 
0 0 -16660.6 
0 0 -16660.6 
0 0 -16660.6 
-2.37901 -0.00918668 -6.05838 
8.19601 -5.27259 -19.1361 
0 0 -16660.6 
0 0 -16660.6 
2.29794 -2.74682 -8.67292 
6.05867 -5.70118 -69.9148 
1.93049 1.04627 -53.6077 
-1.55381 338.573 -762.044 
1.96869 -0.560167 -67.4379 
0 0 -16648.5 
6.00083 -0.74908 -31.5341 
0 0 -16648.5 
0 0 -16648.5 
0 0 -16648.5 
-0.461354 -1.09319 1.18107 
-4.17974 7.96347 -14.1212 
0 0 -16648.5 
0 0 -16648.5 
-0.242105 -1.66255 -14.7594 
2.3962 1.59877 -46.887 
1.44116 2.47976 -43.3222 
-0.0229259 22.2851 -803.31 
39.9936 -47.0037 -1225.78 
5.894 -5.32132 -38.0946 
0 0 -16636.3 
-6.59823 -2.89219 -17.2212 
0 0 -16636.3 
0 0 -16636.3 
0 0 -16636.3 
0 0 -16636.3 
0 0 -16636.3 
1.37079 4.4333 -12.1454 
-3.75586 -7.71 -35.3117 
2.50938 4.34314 -28.1438 
-0.217461 96.0814 -1784.93 
-0.157923 -159.886 16.0726 
-58.974 -1165.43 -442.888 
6.14702 -4.81722 -22.8834 
0 0 -16623.8 
0.47188 1.15678 -6.3104 
0 0 -16623.8 
0 0 -16623.9 
0 0 -16623.8 
0 0 -16623.8 
0 0 -16623.8 
2.39351 -0.218597 -15.872 
1.91154 2.33881 -18.4829 
5.23967 1.95809 -11.7172 
-0.0154243 -6.68213 -2914.85 
1.9597 1.01689 -13.7733 
0 0 16611.1 
0 0 16611.1 
0 0 16611.1 
0 0 16611.1 
7.1318 3.45887 -58.1611 
0 0 16611.1 
0 0 16611.1 
-2.54254 -3.52961 -23.7221 
0.960147 0.621831 -8.57341 
2.31565 -0.0617878 2.81055 
-0.132245 58.5054 3809.65 
37.8762 45.617 25.4262 
-0.275797 643.577 871.556 
-6.31289 -41.4157 -3.88318 
-13.3753 -6.97245 20.8951 
0 0 16735.4 
0.783361 4.61786 157.232 
5.39652 -6.55405 108.401 
2.574 2.36109 23.3074 
1.82917 0.708721 12.0207 
2.37093 3.71023 5.25699 
-2.13221 -3.10871 166.431 
-2.07624 -2.53536 -2.73976 
-36.9084 48.5484 304.888 
-0.00854573 0.0504435 13.4107 
0.208342 -0.435483 28.1915 
7.31596 2.6453 33.9313 
-2.51149 -0.866937 29.1694 
0 0 16735.4 
-2.55961 1.83111 12.8644 
0 0 16735.4 
0.257459 -0.57373 14.076 
0 0 16735.4 
-0.518903 -0.494423 13.5518 
0 0 16735.4 
8.53601 -7.0115 47.0551 
-10.4432 -5.33609 49.8503 
4.78766 13.602 36.7773 
-38.2364 15.8376 55.0759 
1.69942 2.73647 11.2689 
-1.86455 -4.6739 9.83779 
0 0 16735.4 
-0.85097 -11.773 13.5669 
0.86721 -209.513 931.295 
0 0 -16597.9 
0 0 -16597.9 
0 0 -16597.9 
0 0 -16597.9 
0 0 -16597.9 
0 0 -16597.9 
0.103241 9.52235 -4314.11 
VECTORS moment double
0 0 0 
0 0 0 
0 0 0 
0 0 0 
0 0 0 
0 0 0 
0 0 0 
0 0 0 
0 0 0 
0 0 0 
0 0 0 
0 0 0 
0 0 0 
0 0 0 
0 0 0 
0 0 0 
0 0 0 
0 0 0 
0 0 0 
0 0 0 
0 0 0 
0 0 0 
0 0 0 
0 0 0 
0 0 0 
0 0 0 
0 0 0 
0 0 0 
0 0 0 
0 0 0 
0 0 0 
0 0 0 
0 0 0 
0 0 0 
0 0 0 
0 0 0 
0 0 0 
0 0 0 
0 0 0 
0 0 0 
0 0 0 
0 0 0 
0 0 0 
0 0 0 
0 0 0 
0 0 0 
0 0 0 
0 0 0 
0 0 0 
0 0 0 
0 0 0 
0 0 0 
0 0 0 
0 0 0 
0 0 0 
0 0 0 
0 0 0 
0 0 0 
0 0 0 
0 0 0 
0 0 0 
0 0 0 
0 0 0 
0 0 0 
0 0 0 
0 0 0 
0 0 0 
0 0 0 
0 0 0 
0 0 0 
0 0 0 
0 0 0 
0 0 0 
0 0 0 
0 0 0 
0 0 0 
0 0 0 
0 0 0 
0 0 0 
0 0 0 
0 0 0 
0 0 0 
0 0 0 
0 0 0 
0 0 0 
0 0 0 
0 0 0 
0 0 0 
0 0 0 
0 0 0 
0 0 0 
0 0 0 
0 0 0 
0 0 0 
0 0 0 
0 0 0 
0 0 0 
0 0 0 
0 0 0 
0 0 0 
0 0 0 
0 0 0 
0 0 0 
0 0 0 
0 0 0 
0 0 0 
0 0 0 
0 0 0 
0 0 0 
0 0 0 
0 0 0 
0 0 0 
0 0 0 
0 0 0 
0 0 0 
0 0 0 
0 0 0 
0 0 0 
0 0 0 
0 0 0 
0 0 0 
0 0 0 
0 0 0 
0 0 0 
0 0 0 
0 0 0 
0 0 0 
0 0 0 
0 0 0 
0 0 0 
0 0 0 
0 0 0 
0 0 0 
0 0 0 
0 0 0 
0 0 0 
0 0 0 
0 0 0 
0 0 0 
0 0 0 
0 0 0 
0 0 0 
0 0 0 
0 0 0 
0 0 0 
0 0 0 
0 0 0 
0 0 0 
0 0 0 
0 0 0 
0 0 0 
0 0 0 
0 0 0 
0 0 0 
0 0 0 
0 0 0 
0 0 0 
0 0 0 
0 0 0 
0 0 0 
0 0 0 
0 0 0 
0 0 0 
0 0 0 
0 0 0 
0 0 0 
0 0 0 
0 0 0 
0 0 0 
0 0 0 
0 0 0 
0 0 0 
0 0 0 
0 0 0 
0 0 0 
0 0 0 
0 0 0 
0 0 0 
0 0 0 
0 0 0 
0 0 0 
0 0 0 
0 0 0 
0 0 0 
0 0 0 
0 0 0 
0 0 0 
0 0 0 
0 0 0 
0 0 0 
0 0 0 
0 0 0 
SCALARS num_collisions int 1
LOOKUP_TABLE default
1 
1 
1 
1 
1 
1 
1 
1 
1 
1 
1 
1 
1 
1 
1 
1 
1 
1 
1 
1 
1 
1 
1 
1 
1 
1 
1 
1 
1 
1 
1 
1 
1 
1 
1 
1 
1 
1 
1 
1 
1 
1 
1 
1 
1 
1 
1 
1 
1 
1 
1 
1 
1 
1 
1 
1 
1 
1 
1 
1 
1 
1 
1 
1 
1 
1 
1 
1 
1 
1 
1 
1 
1 
1 
1 
1 
1 
1 
1 
1 
1 
1 
1 
1 
1 
1 
1 
1 
1 
1 
1 
1 
1 
1 
1 
1 
1 
1 
1 
1 
1 
1 
1 
1 
1 
1 
1 
1 
1 
1 
1 
1 
1 
1 
1 
1 
1 
1 
1 
1 
1 
1 
1 
1 
1 
1 
1 
1 
1 
1 
1 
1 
1 
1 
1 
1 
1 
1 
1 
1 
1 
1 
1 
1 
1 
1 
1 
1 
1 
1 
1 
1 
1 
1 
1 
1 
1 
1 
1 
1 
1 
1 
1 
1 
1 
1 
1 
1 
1 
1 
1 
1 
1 
1 
1 
1 
1 
1 
1 
1 
1 
1 
1 
1 
1 
1 
1 
1 
1 
1 
1 
1 
VECTORS pos double
-0.392067 -0.401358 -0.42404 
-0.403333 -0.203333 -0.412549 
-0.388315 -0.0127976 -0.423349 
-0.402763 0.397237 -0.412549 
-0.270286 -0.40707 -0.421874 
-0.203538 -0.203538 -0.412549 
-0.203218 -0.00321788 -0.412549 
-0.182048 0.201711 -0.420327 
-0.200888 0.394382 -0.45536 
-0.0354041 -0.39516 -0.418296 
-0.00366947 -0.203669 -0.412549 
-0.00360232 -0.00360232 -0.412549 
0.198236 -0.39106 -0.426039 
0.171738 -0.182005 -0.423218 
0.210539 0.000828705 -0.42574 
0.397918 -0.353834 -0.441986 
0.396714 -0.42694 -0.406919 
-0.398129 -0.41007 -0.352062 
-0.403333 -0.203333 -0.320907 
-0.38516 0.00137578 -0.347062 
-0.402763 0.397237 -0.320907 
-0.203538 -0.203538 -0.320907 
-0.203218 -0.00321788 -0.320907 
-0.197436 0.43487 -0.428723 
-0.00757203 -0.41215 -0.372044 
-0.0942549 -0.423418 -0.383485 
-0.00366947 -0.203669 -0.320907 
-0.00360232 -0.00360232 -0.320907 
0.192029 -0.393097 -0.350946 
0.172801 -0.168729 -0.349048 
0.211464 0.0047405 -0.349324 
0.332931 0.459414 -0.287942 
0.39657 -0.442131 -0.314528 
0.398825 -0.293861 -0.27762 
0.401325 0.365974 -0.403102 
-0.390983 -0.406832 -0.271093 
-0.403333 -0.203333 -0.229258 
-0.368021 -0.00802833 -0.267968 
-0.402763 0.397237 -0.229258 
-0.203538 -0.203538 -0.229258 
-0.203218 -0.00321788 -0.229258 
-0.1391 0.221075 -0.358217 
-0.172089 0.183215 -0.329715 
-0.229871 0.431147 -0.359039 
0.0506642 -0.451426 -0.302764 
-0.00366947 -0.203669 -0.229258 
-0.00360232 -0.00360232 -0.229258 
0.00396227 0.273425 -0.323574 
0.208049 -0.397643 -0.266606 
0.136138 -0.415578 -0.326563 
0.212928 0.00463052 -0.273326 
0.396468 -0.393551 -0.236546 
0.397354 -0.120753 -0.269425 
-0.395333 -0.407748 -0.189779 
-0.403333 -0.203333 -0.137604 
-0.394748 0.0107054 -0.200362 
-0.402763 0.397237 -0.137604 
-0.203538 -0.203538 -0.137604 
-0.203218 -0.00321788 -0.137604 
-0.0715128 0.163458 -0.332609 
-0.248694 0.396766 -0.295072 
0.0611731 -0.410871 -0.26066 
-0.00366947 -0.203669 -0.137604 
-0.00360232 -0.00360232 -0.137604 
0.210441 -0.399538 -0.192972 
0.207092 0.00636122 -0.198598 
0.396343 -0.322577 -0.169539 
0.396506 -0.375192 -0.162701 
0.394736 -0.123883 -0.205064 
0.399267 -0.209949 -0.240207 
-0.395452 -0.398038 -0.112203 
-0.403333 -0.203333 -0.0459431 
-0.397519 -0.00919228 -0.110291 
-0.402763 0.397237 -0.0459431 
-0.203538 -0.203538 -0.0459431 
-0.203218 -0.00321788 -0.0459431 
-0.219696 0.374503 -0.234408 
0.0198813 -0.398701 -0.209884 
-0.00366947 -0.203669 -0.045943 
-0.00360232 -0.00360232 -0.0459431 
0.00537025 0.196474 -0.228057 
0.208871 -0.399454 -0.116111 
0.207465 0.00543958 -0.122053 
0.396667 -0.417819 -0.0729822 
0.410216 0.431154 -0.268206 
-0.39459 -0.409526 -0.0356266 
-0.403333 -0.203333 0.0457236 
-0.404582 -0.00760829 -0.0369561 
-0.402763 0.397237 0.0457236 
-0.203538 -0.203538 0.0457236 
-0.203218 -0.00321788 0.0457236 
-0.220449 0.38909 -0.170405 
-0.0232318 -0.363102 -0.13502 
-0.00366947 -0.203669 0.0457236 
-0.00360232 -0.00360232 0.0457236 
-0.0163705 0.212883 -0.152526 
0.207795 -0.407742 -0.0388445 
0.210917 0.00560736 -0.0463315 
0.396748 -0.41862 0.0174921 
-0.392206 -0.411644 0.0414362 
-0.403333 -0.203333 0.137396 
-0.425578 -0.0128666 0.0434082 
-0.402763 0.397237 0.137396 
-0.203538 -0.203538 0.137396 
-0.203218 -0.00321788 0.137396 
-0.200912 0.410713 -0.0821803 
-0.0101085 -0.401172 -0.0440673 
-0.00366947 -0.203669 0.137396 
-0.00360232 -0.00360232 0.137396 
-0.0074707 0.215214 -0.0945639 
0.202519 -0.403442 0.0480188 
0.212449 0.00668429 0.0299238 
0.3967 -0.397262 0.112289 
0.395458 0.0181805 -0.0806962 
-0.383897 -0.414356 0.119606 
-0.403333 -0.203333 0.229075 
-0.40878 0.00718524 0.117253 
-0.402763 0.397237 0.229075 
-0.203538 -0.203538 0.229075 
-0.203218 -0.00321788 0.229075 
-0.00366947 -0.203669 0.229075 
-0.00360232 -0.00360232 0.229075 
-0.00422433 0.212264 0.00495653 
0.200428 -0.399478 0.120928 
0.21923 0.00393488 0.105704 
0.396708 -0.401373 0.210511 
0.395101 -0.00198557 0.0104692 
0.400081 0.0745444 -0.0244463 
-0.385989 -0.396914 0.203247 
-0.403333 -0.203333 0.32076 
-0.383027 0.00190581 0.200662 
-0.402763 0.397237 0.32076 
-0.203538 -0.203538 0.32076 
-0.203218 -0.00321788 0.32076 
-0.00366947 -0.203669 0.32076 
-0.00360232 -0.00360232 0.32076 
-0.00697294 0.183275 0.117406 
0.217995 -0.393603 0.199732 
0.228388 -0.00221877 0.180963 
0.396717 -0.404998 0.308043 
-0.423901 -0.389298 0.273761 
-0.403333 -0.203333 0.412451 
-0.402763 0.397237 0.412451 
-0.203538 -0.203538 0.412451 
-0.203218 -0.00321788 0.412451 
0.00373359 -0.395432 0.236031 
-0.00366947 -0.203669 0.412451 
-0.00360232 -0.00360232 0.412451 
-0.00930816 0.200329 0.203679 
0.187477 -0.400622 0.266503 
0.192182 0.00835511 0.261624 
0.396714 -0.403119 0.405245 
0.0339468 -0.500015 -0.31618 
0.396675 -0.5 -0.363297 
-0.185531 0.500006 -0.388495 
0.405067 0.500017 -0.337785 
-0.203538 -0.203538 -0.5 
0.205669 -0.00248661 -0.500036 
-0.395044 -0.00931476 -0.500027 
0.392053 0.351502 -0.500006 
-0.191538 -0.364164 -0.500003 
-0.0690238 0.358848 -0.500001 
-0.392079 -0.405148 -0.500042 
-0.028292 0.214728 -0.500003 
0.206072 -0.401215 -0.500074 
0.39112 -0.0377027 -0.5 
0.171906 -0.19443 -0.500007 
-0.227665 0.368712 -0.500005 
-0.260743 -0.419198 -0.500007 
-0.00360232 -0.00360232 -0.5 
0.295676 0.0525178 -0.500003 
-0.403333 -0.203333 -0.5 
-0.295353 0.139485 -0.500001 
-0.00366947 -0.203669 -0.5 
0.0554655 0.347518 -0.500003 
-0.203218 -0.00321788 -0.5 
-0.195434 0.214341 -0.500009 
-0.0191314 -0.387076 -0.50001 
0.375493 0.445144 -0.500004 
-0.136766 0.406423 -0.500013 
0.148302 0.19464 -0.5 
0.208857 0.144596 -0.500002 
-0.402763 0.397237 -0.5 
0.18379 0.376967 -0.500032 
0.396752 -0.403051 -0.5 
-0.00366947 -0.203669 0.5 
-0.203538 -0.203538 0.5 
-0.203218 -0.00321788 0.5 
-0.403333 -0.203333 0.5 
-0.00360232 -0.00360232 0.5 
-0.402763 0.397237 0.5 
0.396712 -0.402781 0.5 
VECTORS dir_n double
-0.0573997 -0.00525199 -0.998337 
5.98005e-20 0 -1 
0.135643 -0.0339044 -0.990177 
5.98005e-20 0 -1 
0.54413 -0.156355 -0.824303 
5.98006e-20 0 -1 
5.98004e-20 0 -1 
0.391058 -0.0558296 -0.918671 
-0.747572 -0.57116 -0.338987 
0.0164511 -0.222779 -0.97473 
5.98005e-20 0 -1 
5.98006e-20 0 -1 
0.1856 -0.039257 -0.981841 
-0.045564 -0.0336507 -0.998394 
-0.16129 -0.038134 -0.98617 
0.0233249 0.984956 0.171224 
0.00076952 0.480326 -0.87709 
0.178564 0.133431 -0.974839 
5.98462e-20 0 -1 
0.0585221 -0.105586 -0.992687 
5.98462e-20 0 -1 
5.98463e-20 0 -1 
5.98461e-20 0 -1 
0.542548 -0.594805 -0.593169 
-0.788644 0.398615 -0.468132 
0.95898 0.256752 -0.120146 
5.98462e-20 0 -1 
5.98462e-20 0 -1 
0.387567 0.0750614 -0.918781 
0.153794 -0.0110104 -0.988042 
-0.104295 -0.0823454 -0.991132 
-0.561422 -0.431555 0.706092 
0.00212471 -0.17558 -0.984463 
-0.0124208 -0.688322 -0.725299 
-0.0744465 -0.290887 -0.953857 
0.372634 0.143008 -0.916893 
5.98909e-20 0 -1 
0.312834 0.00845992 -0.94977 
5.98909e-20 0 -1 
5.98909e-20 0 -1 
5.98908e-20 0 -1 
-0.988351 0.152079 0.0059348 
0.174813 0.31927 -0.931401 
0.789803 0.181608 -0.585859 
-0.590622 -0.0971642 -0.801077 
5.98909e-20 0 -1 
5.98909e-20 0 -1 
-0.906104 -0.235591 -0.351387 
-0.211007 0.145031 -0.966665 
0.875878 0.288635 -0.386688 
0.00142468 -0.0328682 -0.999459 
-6.2113e-05 -0.806725 -0.590927 
-0.0347485 0.790989 -0.610843 
0.0799326 0.0601275 -0.994985 
5.99348e-20 0 -1 
0.54435 0.072021 -0.835761 
5.99348e-20 0 -1 
5.99348e-20 0 -1 
5.99348e-20 0 -1 
0.871532 -0.13326 0.471884 
0.387886 0.885105 -0.257164 
0.499177 -0.505671 -0.703648 
5.99348e-20 0 -1 
5.99348e-20 0 -1 
0.0520392 0.205367 -0.9773 
0.0959762 0.0716068 -0.992805 
0.0026101 -0.635335 -0.772232 
-0.000711223 0.434356 -0.900741 
0.0872959 -0.729833 -0.678029 
-0.00354695 0.999642 0.0265153 
0.0829579 0.0495049 -0.995323 
5.99783e-20 0 -1 
0.736956 0.0794275 -0.671258 
5.99783e-20 0 -1 
5.99783e-20 0 -1 
5.99783e-20 0 -1 
-0.690333 0.105452 -0.715765 
0.710761 -0.113277 -0.694253 
5.99783e-20 0 -1 
5.99783e-20 0 -1 
-0.305943 -0.0828427 -0.948439 
0.263576 0.204278 -0.942761 
0.0560984 0.0663871 -0.996216 
-0.00251792 0.423933 -0.90569 
0.280583 -0.54247 0.791833 
0.0812923 0.106849 -0.990946 
6.00217e-20 0 -1 
-0.256552 0.0363728 -0.965846 
6.00217e-20 0 -1 
6.00217e-20 0 -1 
6.00217e-20 0 -1 
0.196057 -0.462428 -0.864709 
0.202249 0.25174 -0.946426 
6.00217e-20 0 -1 
6.00217e-20 0 -1 
-0.0762109 0.280405 -0.956852 
0.490656 0.245133 -0.836162 
-0.0731844 0.0298518 -0.996872 
0.000898935 -0.408332 -0.912833 
0.0987476 0.164335 -0.981449 
6.00653e-20 0 -1 
-0.094136 0.0685404 -0.993197 
6.00653e-20 0 -1 
6.00653e-20 0 -1 
6.00654e-20 0 -1 
-0.258874 -0.224867 0.939372 
-0.674495 0.15656 -0.721488 
6.00654e-20 0 -1 
6.00653e-20 0 -1 
0.397792 -0.244999 -0.884159 