# vtk DataFile Version 2.0
Generated by NetDEM
ASCII 
DATASET POLYDATA
POINTS 308 double
-0.408536 -0.00674787 -0.462993 
-0.394529 -0.00457245 -0.384854 
-0.265822 -0.431854 -0.459354 
-0.310759 -0.409898 -0.393631 
-0.203173 -0.0031395 -0.455836 
-0.199921 -0.00785062 -0.358968 
-0.164215 0.197807 -0.463664 
-0.160843 0.185155 -0.38212 
-0.164215 0.197807 -0.463664 
-0.0883297 0.160991 -0.406176 
-0.247465 0.369103 -0.464952 
-0.299475 0.340583 -0.376664 
-0.044632 -0.403166 -0.459726 
-0.0667907 -0.411356 -0.386083 
-0.00388611 -0.00409135 -0.468921 
-0.00302533 -0.00262495 -0.386261 
0.0314172 0.18738 -0.453435 
0.00650049 0.257235 -0.446756 
-0.0410874 0.396216 -0.464207 
-0.100579 0.444445 -0.368716 
0.170515 -0.206968 -0.461847 
0.172483 -0.187736 -0.386717 
0.173318 -0.00989814 -0.462337 
0.186517 -0.00796381 -0.382604 
0.159871 0.210503 -0.464912 
0.256654 0.177271 -0.434504 
0.311081 0.421133 -0.400885 
0.399689 0.451507 -0.339792 
0.311081 0.421133 -0.400885 
0.370131 0.438195 -0.465062 
0.407493 -0.400782 -0.450033 
0.400479 -0.450004 -0.363279 
0.407493 -0.400782 -0.450033 
0.403299 -0.349077 -0.364561 
0.406829 -0.296958 -0.450011 
0.394422 -0.202169 -0.420678 
0.349092 -0.0137135 -0.450025 
0.380582 -0.0833712 -0.385586 
0.383545 0.0932361 -0.450044 
0.450023 0.139632 -0.39156 
-0.394529 -0.00457245 -0.384854 
-0.352836 0.0157559 -0.316655 
-0.310759 -0.409898 -0.393631 
-0.244867 -0.410626 -0.336479 
-0.199921 -0.00785062 -0.358968 
-0.204311 -0.00241074 -0.260468 
-0.00302533 -0.00262495 -0.386261 
-0.00148376 3.28797e-05 -0.300975 
0.00650049 0.257235 -0.446756 
-0.0413785 0.258226 -0.368961 
0.172483 -0.187736 -0.386717 
0.175823 -0.241466 -0.326748 
0.186517 -0.00796381 -0.382604 
0.188904 0.0141126 -0.310369 
0.197317 0.112197 -0.455817 
0.274561 0.0661845 -0.443508 
0.303539 0.420202 -0.289748 
0.399689 0.451507 -0.339792 
0.400479 -0.450004 -0.363279 
0.348463 -0.437921 -0.278734 
0.403299 -0.349077 -0.364561 
0.37142 -0.320744 -0.274127 
0.304877 -0.168706 -0.450012 
0.394422 -0.202169 -0.420678 
0.450023 0.139632 -0.39156 
0.449933 0.235129 -0.36194 
0.450023 0.139632 -0.39156 
0.399147 0.166265 -0.309734 
0.424507 0.342659 -0.454622 
0.439142 0.259596 -0.457405 
0.424507 0.342659 -0.454622 
0.426266 0.3669 -0.365733 
-0.352836 0.0157559 -0.316655 
-0.328397 0.0387749 -0.247687 
-0.180559 -0.369989 -0.452734 
-0.152153 -0.442004 -0.382456 
-0.204311 -0.00241074 -0.260468 
-0.213262 0.0116654 -0.161976 
-0.160843 0.185155 -0.38212 
-0.118423 0.130004 -0.300055 
-0.00148376 3.28797e-05 -0.300975 
-0.00929013 -0.0133186 -0.212783 
-0.0413785 0.258226 -0.368961 
-0.0281196 0.21103 -0.300248 
-0.0413785 0.258226 -0.368961 
-0.0494833 0.353338 -0.30383 
0.244181 0.349619 -0.457971 
0.3142 0.314862 -0.398662 
0.188904 0.0141126 -0.310369 
0.189438 0.0149376 -0.239234 
0.394422 -0.202169 -0.420678 
0.450005 -0.207624 -0.337735 
0.380582 -0.0833712 -0.385586 
0.450013 -0.10368 -0.316568 
0.449933 0.235129 -0.36194 
0.439142 0.259596 -0.457405 
-0.328397 0.0387749 -0.247687 
-0.381032 0.0060661 -0.167771 
-0.328397 0.0387749 -0.247687 
-0.266646 0.114937 -0.200726 
-0.227605 0.221626 -0.32604 
-0.233142 0.210607 -0.226949 
-0.0883297 0.160991 -0.406176 
0.0224044 0.108075 -0.411846 
0.0105459 -0.187484 0.160925 
-0.0306466 -0.15228 0.244976 
-0.00929013 -0.0133186 -0.212783 
-0.00694692 -0.00936889 -0.118449 
0.189438 0.0149376 -0.239234 
0.176561 0.00967587 -0.167383 
0.189438 0.0149376 -0.239234 
0.210398 0.127998 -0.230846 
0.256654 0.177271 -0.434504 
0.219885 0.227305 -0.37076 
0.37142 -0.320744 -0.274127 
0.393349 -0.243813 -0.214133 
0.450013 -0.10368 -0.316568 
0.382977 -0.161907 -0.270575 
0.399147 0.166265 -0.309734 
0.360304 0.135635 -0.222854 
0.426266 0.3669 -0.365733 
0.399689 0.451507 -0.339792 
-0.381032 0.0060661 -0.167771 
-0.460414 -0.0179958 -0.160974 
-0.00694692 -0.00936889 -0.118449 
0.0183491 0.0337335 -0.0330422 
-0.0281196 0.21103 -0.300248 
-0.108296 0.174686 -0.223685 
0.176561 0.00967587 -0.167383 
0.175884 -0.000809956 -0.084986 
0.219885 0.227305 -0.37076 
0.195024 0.300814 -0.305609 
0.219885 0.227305 -0.37076 
0.208248 0.178414 -0.298365 
0.365235 0.448771 -0.210762 
0.433755 0.404295 -0.270253 
0.365235 0.448771 -0.210762 
0.391951 0.43458 -0.123545 
0.399689 0.451507 -0.339792 
0.433755 0.404295 -0.270253 
-0.368696 -0.202337 0.0959116 
-0.337178 -0.205088 0.189709 
-0.108296 0.174686 -0.223685 
-0.123739 0.262271 -0.183544 
0.175884 -0.000809956 -0.084986 
0.192631 -0.00810578 -0.00715071 
0.433755 0.404295 -0.270253 
0.445161 0.382501 -0.17078 
-0.337178 -0.205088 0.189709 
-0.267251 -0.201629 0.259028 
-0.208414 0.306083 -0.150939 
-0.123739 0.262271 -0.183544 
-0.239006 0.0479784 0.0849727 
-0.212902 0.0223634 0.177267 
-0.123739 0.262271 -0.183544 
-0.0423654 0.237822 -0.111979 
-0.0494833 0.353338 -0.30383 
-0.0177767 0.353861 -0.193873 
-0.0494833 0.353338 -0.30383 
-0.0678377 0.438982 -0.25929 
0.192631 -0.00810578 -0.00715071 
0.20121 -0.0191459 0.062564 
0.208248 0.178414 -0.298365 
0.178068 0.204721 -0.208964 
0.393349 -0.243813 -0.214133 
0.411356 -0.19162 -0.130761 
-0.212902 0.0223634 0.177267 
-0.198421 -0.0152514 0.267649 
-0.131616 0.196225 -0.112639 
-0.158448 0.158601 -0.0232022 
-0.131616 0.196225 -0.112639 
-0.0423654 0.237822 -0.111979 
-0.0530492 -0.0581484 0.212292 
-0.00166743 -0.00261044 0.276543 
-0.0530492 -0.0581484 0.212292 
-0.0498325 -0.0826546 0.11753 
0.20121 -0.0191459 0.062564 
0.195973 -0.0317241 0.135521 
0.375991 0.0516288 -0.170797 
0.404521 -0.0311665 -0.122526 
0.391951 0.43458 -0.123545 
0.397619 0.404291 -0.0523677 
-0.420805 -0.174841 0.268862 
-0.447256 -0.201944 0.361292 
-0.450225 0.430405 -0.00565518 
-0.357906 0.410817 0.0273541 
-0.158448 0.158601 -0.0232022 
-0.192241 0.186791 0.0591464 
0.195973 -0.0317241 0.135521 
0.197183 -0.0207854 0.219231 
0.178068 0.204721 -0.208964 
0.198018 0.218691 -0.11421 
0.404521 -0.0311665 -0.122526 
0.380249 -0.0763855 -0.0367048 
-0.404565 -0.208456 0.45089 
-0.447256 -0.201944 0.361292 
-0.186918 -0.402588 -0.0421985 
-0.211045 -0.403014 0.0460005 
-0.192241 0.186791 0.0591464 
-0.211789 0.207942 0.149679 
0.197183 -0.0207854 0.219231 
0.189587 0.00620325 0.287875 
0.198018 0.218691 -0.11421 
0.200441 0.190348 -0.0266966 
-0.0746975 -0.222596 0.334153 
-0.0462116 -0.144111 0.387297 
-0.198421 -0.0152514 0.267649 
-0.209163 -0.0996945 0.318679 
-0.00228981 -0.39859 0.0647952 
-0.00514896 -0.407993 0.158109 
0.000556272 0.403237 -0.00673168 
-0.0049704 0.396216 0.0808441 
0.200441 0.190348 -0.0266966 
0.194284 0.180433 0.0670428 
0.39255 -0.174612 -0.0225634 
0.380249 -0.0763855 -0.0367048 
0.395492 0.389388 0.123899 
0.39378 0.403828 0.20708 
-0.00514896 -0.407993 0.158109 
-0.00361733 -0.403132 0.253617 
-0.0462116 -0.144111 0.387297 
-0.0290871 -0.0495585 0.361304 
-0.450006 0.139113 -0.450012 
-0.5 0.139123 -0.450013 
-0.450225 0.430405 -0.00565518 
-0.5 0.430314 -0.00494827 
0.450005 -0.207624 -0.337735 
0.5 -0.207635 -0.337716 
0.450013 -0.10368 -0.316568 
0.5 -0.103677 -0.316546 
0.445161 0.382501 -0.17078 
0.500001 0.397005 -0.159294 
0.450023 0.139632 -0.39156 
0.5 0.139635 -0.39156 
0.400479 -0.450004 -0.363279 
0.400475 -0.5 -0.363278 
-0.100579 0.444445 -0.368716 
-0.0976571 0.500002 -0.344485 
0.399689 0.451507 -0.339792 
0.411142 0.500012 -0.356192 
-0.450006 0.139113 -0.450012 
-0.450006 0.139123 -0.5 
0.173318 -0.00989814 -0.462337 
0.210082 -0.0114179 -0.500037 
-0.265822 -0.431854 -0.459354 
-0.260732 -0.419197 -0.500011 
0.383545 0.0932361 -0.450044 
0.383546 0.0932365 -0.5 
-0.00388611 -0.00409135 -0.468921 
-0.00386783 -0.00405989 -0.5 
0.407493 -0.400782 -0.450033 
0.407479 -0.400781 -0.5 
-0.408536 -0.00674787 -0.462993 
-0.385178 -0.00773274 -0.500013 
-0.417881 -0.405711 -0.463095 
-0.404569 -0.401161 -0.500003 
0.00650049 0.257235 -0.446756 
-0.022083 0.225308 -0.500045 
0.191356 -0.400274 -0.463482 
0.206377 -0.401113 -0.500003 
-0.0410874 0.396216 -0.464207 
-0.0539396 0.403989 -0.500009 
-0.247465 0.369103 -0.464952 
-0.256032 0.36825 -0.500003 
-0.044632 -0.403166 -0.459726 
-0.0341543 -0.386402 -0.500005 
0.424507 0.342659 -0.454622 
0.454926 0.350971 -0.500004 
-0.180559 -0.369989 -0.452734 
-0.178425 -0.390773 -0.500005 
0.349092 -0.0137135 -0.450025 
0.349102 -0.0137201 -0.5 
-0.301664 0.160801 -0.465044 
-0.297865 0.179992 -0.500001 
0.439142 0.259596 -0.457405 
0.399171 0.279809 -0.500019 
0.0480798 0.346708 -0.441474 
0.0555113 0.347415 -0.500003 
0.406829 -0.296958 -0.450011 
0.406831 -0.296959 -0.5 
-0.164215 0.197807 -0.463664 
-0.148479 0.200035 -0.500029 
0.274561 0.0661845 -0.443508 
0.294868 0.0528662 -0.500003 
0.0314172 0.18738 -0.453435 
0.0347535 0.182682 -0.500013 
0.159871 0.210503 -0.464912 
0.176221 0.218192 -0.500018 
0.197317 0.112197 -0.455817 
0.208865 0.1445 -0.500003 
0.0374726 0.450924 -0.440986 
0.0504464 0.452222 -0.500003 
0.170515 -0.206968 -0.461847 
0.165784 -0.175404 -0.500007 
0.244181 0.349619 -0.457971 
0.251991 0.365225 -0.500009 
0.370131 0.438195 -0.465062 
0.356548 0.424725 -0.500012 
0.304877 -0.168706 -0.450012 
0.3049 -0.168691 -0.5 
-0.203173 -0.0031395 -0.455836 
-0.20318 -0.00313329 -0.5 
-0.233554 -0.220368 0.450008 
-0.233655 -0.220277 0.5 
-0.00761831 -0.00446099 0.450006 
-0.0075599 -0.00453201 0.5 
-0.404565 -0.208456 0.45089 
-0.404541 -0.208372 0.5 
LINES 154 462
2 0 1
2 2 3
2 4 5
2 6 7
2 8 9
2 10 11
2 12 13
2 14 15
2 16 17
2 18 19
2 20 21
2 22 23
2 24 25
2 26 27
2 28 29
2 30 31
2 32 33
2 34 35
2 36 37
2 38 39
2 40 41
2 42 43
2 44 45
2 46 47
2 48 49
2 50 51
2 52 53
2 54 55
2 56 57
2 58 59
2 60 61
2 62 63
2 64 65
2 66 67
2 68 69
2 70 71
2 72 73
2 74 75
2 76 77
2 78 79
2 80 81
2 82 83
2 84 85
2 86 87
2 88 89
2 90 91
2 92 93
2 94 95
2 96 97
2 98 99
2 100 101
2 102 103
2 104 105
2 106 107
2 108 109
2 110 111
2 112 113
2 114 115
2 116 117
2 118 119
2 120 121
2 122 123
2 124 125
2 126 127
2 128 129
2 130 131
2 132 133
2 134 135
2 136 137
2 138 139
2 140 141
2 142 143
2 144 145
2 146 147
2 148 149
2 150 151
2 152 153
2 154 155
2 156 157
2 158 159
2 160 161
2 162 163
2 164 165
2 166 167
2 168 169
2 170 171
2 172 173
2 174 175
2 176 177
2 178 179
2 180 181
2 182 183
2 184 185
2 186 187
2 188 189
2 190 191
2 192 193
2 194 195
2 196 197
2 198 199
2 200 201
2 202 203
2 204 205
2 206 207
2 208 209
2 210 211
2 212 213
2 214 215
2 216 217
2 218 219
2 220 221
2 222 223
2 224 225
2 226 227
2 228 229
2 230 231
2 232 233
2 234 235
2 236 237
2 238 239
2 240 241
2 242 243
2 244 245
2 246 247
2 248 249
2 250 251
2 252 253
2 254 255
2 256 257
2 258 259
2 260 261
2 262 263
2 264 265
2 266 267
2 268 269
2 270 271
2 272 273
2 274 275
2 276 277
2 278 279
2 280 281
2 282 283
2 284 285
2 286 287
2 288 289
2 290 291
2 292 293
2 294 295
2 296 297
2 298 299
2 300 301
2 302 303
2 304 305
2 306 307
POINT_DATA 308
SCALARS id int 1
LOOKUP_TABLE default
2
27
5
30
7
32
8
58
8
83
9
109
10
35
12
37
13
38
14
114
16
41
17
42
18
93
19
124
19
24
20
45
20
46
21
71
22
72
23
48
27
52
30
105
32
57
37
62
38
63
41
91
42
67
43
68
44
124
45
70
46
95
47
71
48
73
48
97
49
74
49
99
52
77
55
80
57
82
58
108
62
87
63
113
63
164
64
98
67
92
71
121
72
96
73
74
77
102
77
203
78
128
83
88
86
111
87
112
92
117
92
193
93
118
95
170
96
146
97
223
99
124
102
127
112
137
113
133
117
142
118
143
118
168
119
149
119
199
124
149
126
151
133
158
142
167
149
174
151
251
153
158
157
182
158
188
164
214
164
189
167
192
168
218
170
196
182
257
183
208
183
188
186
287
186
187
192
217
197
222
199
224
201
301
204
254
208
233
217
242
218
243
222
297
226
301
230
255
233
258
242
267
243
268
256
286
257
311
260
285
264
289
268
293
271
297
274
299
285
310
286
312
3
0
204
0
121
1
96
1
174
1
48
1
45
2
114
3
124
3
3
4
17
4
5
4
23
4
12
4
20
4
2
4
0
4
38
4
15
4
14
4
9
4
10
4
49
4
55
4
22
4
33
4
74
4
39
4
21
4
8
4
68
4
13
4
18
4
43
4
89
4
16
4
64
4
24
4
47
4
7
4
231
5
237
5
226
5
CELL_DATA 154
VECTORS force double
-7.14732 -10.896 -46.9798 
7.72993 -0.297821 -22.2563 
30.0626 -31.9961 1627.73 
2.10347 5.58687 -43.0415 
-6.08777 0.586514 -19.8413 
-311.623 21.8749 -165.195 
2.40489 2.54186 -6.53765 
-358.94 -614.184 -30820.6 
29.1067 -37.8565 -61.6512 
8.38534 -6.87416 -31.1143 
-1.88343 4.5266 -15.4898 
2.8957 -14.94 -128.312 
-30.3262 35.9316 -143.643 
9.2231 0.406301 -18.6344 
-8.06866 5.67746 40.7938 
0.764507 7.66449 -16.6445 
2.89919 -13.491 -34.1701 
-0.345822 -5.04826 -7.89058 
-11.1568 17.0392 -32.0587 
-36.2294 -27.3166 -66.5251 
-26.8217 -26.9954 -58.3274 
4.68567 -0.380294 -5.73959 
-124.388 152.966 2904.12 
22.7621 35.805 -24073.6 
25.7576 -76.2242 -282.48 
0.0249601 0.813965 -3.51282 
7.28784 -7.46843 -105.14 
-1.65032 2.93786 -1.55937 
-4.93889 -2.29643 12.9476 
1.24138 -0.200745 -4.21219 
4.46221 -10.8907 -20.7036 
-9.40609 3.36821 -11.7383 
3.77122 -39.9917 15.7148 
30.1773 -5.94176 -66.3324 
32.9145 77.935 27.3817 
-3.18079 -35.0535 -38.7455 
-201.079 -282.787 -301.633 
-0.483718 -0.0808242 -8.39628 
-128.976 222.937 1962.41 
-3.3761 8.15975 -12.8077 
600.791 1027.02 -14278.1 
23.2283 0.861013 -130.229 
17.4649 -63.5052 -92.3205 
-6.13634 6.35095 -14.4143 
7.48165 -4.48786 -100.308 
-11.0426 -0.712402 -9.76726 
-22.0845 11.5002 -19.1851 
9.66893 -39.8484 32.3173 
96.1596 85.9464 -161.007 
-442.24 -539.269 -627.26 
25.6067 63.9943 -361.476 
-7.6918 1.01515 -9.69972 
-208.287 158.255 336.752 
418.492 716.503 -4578.82 
0.360049 1.10807 -99.6433 
0.638001 -1.16883 -0.916386 
21.4068 24.3848 -200.332 
-0.111271 -7.38311 -10.1171 
2.4074 4.34375 -5.05196 
19.3249 6.83151 -34.379 
-2.41455 -29.7149 -25.6287 
9.88601 -2.03715 -38.6723 
345.416 588.503 1523.15 
37.132 5.49127 -33.7457 
-0.542626 3.04733 -96.8915 
-10.5261 27.8846 -17.6235 
44.8643 -14.6329 -249.956 
-3.68897 2.17484 25.9835 
3.28621 3.77538 -58.7828 
-0.341059 0.646705 -39.5237 
-33.4739 1.63162 -25.5164 
47.7336 -43.5312 -21.1481 
-0.821198 13.9546 -82.8557 
-0.641644 1.80862 -5.57185 
106.098 7.54893 186.01 
-422.512 85.8358 287.293 
80.8836 -186.971 320.535 
13.5143 -1.00048 -8.9646 
4.33196 -5.5829 2.92303 
10.6649 -27.5051 -24.4257 
6.17401 25.3267 -99.649 
90.6963 -93.7525 -411.372 
-1.89712 -3.32064 -2.99761 
18.7453 216.2 32.9764 
13.8735 6.77733 -29.9402 
-22.5842 -9.84716 47.9674 
-568.516 -910.204 -1273.66 
44.5584 809.893 2132.4 
-2.2465 9.96192 -53.0386 
-0.311678 1.83387 -0.819035 
-33.2759 47.2951 -91.3567 
-82.2521 -17.8656 108.031 
388.663 -71.1523 125.378 
11.1787 -0.248791 -26.5234 
3.96137 3.98047 -19.3348 
27.4976 -29.3622 -385.968 
0.472765 1.21782 -3.1195 
106.566 -9.58648 384.273 
3.76673 2.50886 -14.6093 
2.86567 -4.19627 -12.7358 
0.351842 -2.10437 -7.52959 
-30.8789 23.2927 -262.577 
-86.7534 -285.119 -19.6238 
36.9862 419.883 -362.577 
-7.58825 -6.55322 -25.2118 
-0.583505 -1.47385 1.27383 
-21.5776 22.46 -130.327 
-0.2892 0.319765 -0.424472 
-12.0007 -33.5636 -279.532 
3.23809 23.0515 -99.02 
-71.6972 -41.3719 -104.592 
9.83256 -0.000506059 -10.0193 
207.041 17.9512 -37.826 
-11.0875 0.510056 -1.59626 
-25.8488 1.21843 -4.1979 
-2.37176 -0.945353 1.27613 
-71.7829 10.6551 6.98858 
-0.0279441 7.67443 1.32891 
1.33492 -11.5316 -2.44001 
4.81793 -31.904 20.3507 
-9.96462 -0.000746871 23.4988 
-5.31302 21.269 139.495 
-10.1899 -1.83017 37.8596 
29.0721 19.9462 86.2713 
120.685 204.752 33985.1 
-0.629686 4.97906 64.928 
0.990279 6.65178 54.2831 
-2.50973 -0.940277 12.8128 
6.6681 41.5479 251.917 
-3.56515 -0.585389 13.4046 
-5.54147 2.16695 49.3858 
1.73994 0.293288 13.2718 
-1.73116 -3.372 20.3776 
-29.6847 -43.0562 22.0682 
-0.50077 0.98756 22.0547 
5.6434 -13.8248 47.9787 
0.255606 1.72943 14.6248 
50.3218 38.5647 70.5765 
-1.09246 0.129789 12.7266 
-0.667353 5.69508 21.4679 
-4.96347 1.41346 89.877 
-2.8564 1.94252 11.8026 
-30.0076 59.8903 75.6104 
38.3955 -33.0649 128.099 
-0.619508 -6.36729 12.0136 
-1.7566 -0.0922921 13.0483 
2.86227 -6.02973 27.327 
8.37266 -13.0334 30.335 
-9.17335 11.0216 60.2853 
8.25626 -3.0683 25.3868 
17.849 -62.3872 -65.3828 
23.3428 16.9594 157.055 
450.258 614.014 3900.2 
-83.7616 23.5118 -1004.66 
VECTORS moment double
0 0 0 
0 0 0 
0 0 0 
0 0 0 
0 0 0 
0 0 0 
0 0 0 
0 0 0 
0 0 0 
0 0 0 
0 0 0 
0 0 0 
0 0 0 
0 0 0 
0 0 0 
0 0 0 
0 0 0 
0 0 0 
0 0 0 
0 0 0 
0 0 0 
0 0 0 
0 0 0 
0 0 0 
0 0 0 
0 0 0 
0 0 0 
0 0 0 
0 0 0 
0 0 0 
0 0 0 
0 0 0 
0 0 0 
0 0 0 
0 0 0 
0 0 0 
0 0 0 
0 0 0 
0 0 0 
0 0 0 
0 0 0 
0 0 0 
0 0 0 
0 0 0 
0 0 0 
0 0 0 
0 0 0 
0 0 0 
0 0 0 
0 0 0 
0 0 0 
0 0 0 
0 0 0 
0 0 0 
0 0 0 
0 0 0 
0 0 0 
0 0 0 
0 0 0 
0 0 0 
0 0 0 
0 0 0 
0 0 0 
0 0 0 
0 0 0 
0 0 0 
0 0 0 
0 0 0 
0 0 0 
0 0 0 
0 0 0 
0 0 0 
0 0 0 
0 0 0 
0 0 0 
0 0 0 
0 0 0 
0 0 0 
0 0 0 
0 0 0 
0 0 0 
0 0 0 
0 0 0 
0 0 0 
0 0 0 
0 0 0 
0 0 0 
0 0 0 
0 0 0 
0 0 0 
0 0 0 
0 0 0 
0 0 0 
0 0 0 
0 0 0 
0 0 0 
0 0 0 
0 0 0 
0 0 0 
0 0 0 
0 0 0 
0 0 0 
0 0 0 
0 0 0 
0 0 0 
0 0 0 
0 0 0 
0 0 0 
0 0 0 
0 0 0 
0 0 0 
0 0 0 
0 0 0 
0 0 0 
0 0 0 
0 0 0 
0 0 0 
0 0 0 
0 0 0 
0 0 0 
0 0 0 
0 0 0 
0 0 0 
0 0 0 
0 0 0 
0 0 0 
0 0 0 
0 0 0 
0 0 0 
0 0 0 
0 0 0 
0 0 0 
0 0 0 
0 0 0 
0 0 0 
0 0 0 
0 0 0 
0 0 0 
0 0 0 
0 0 0 
0 0 0 
0 0 0 
0 0 0 
0 0 0 
0 0 0 
0 0 0 
0 0 0 
0 0 0 
0 0 0 
0 0 0 
0 0 0 
0 0 0 
0 0 0 
0 0 0 
SCALARS num_collisions int 1
LOOKUP_TABLE default
1 
1 
1 
1 
1 
1 
1 
1 
1 
1 
1 
1 
1 
1 
1 
1 
1 
1 
1 
1 
1 
1 
1 
1 
1 
1 
1 
1 
1 
1 
1 
1 
1 
1 
1 
1 
1 
1 
1 
1 
1 
1 
1 
1 
1 
1 
1 
1 
1 
1 
1 
1 
1 
1 
1 
1 
1 
1 
1 
1 
1 
1 
1 
1 
1 
1 
1 
1 
1 
1 
1 
1 
1 
1 
1 
1 
1 
1 
1 
1 
1 
1 
1 
1 
1 
1 
1 
1 
1 
1 
1 
1 
1 
1 
1 
1 
1 
1 
1 
1 
1 
1 
1 
1 
1 
1 
1 
1 
1 
1 
1 
1 
1 
1 
1 
1 
1 
1 
1 
1 
1 
1 
1 
1 
1 
1 
1 
1 
1 
1 
1 
1 
1 
1 
1 
1 
1 
1 
1 
1 
1 
1 
1 
1 
1 
1 
1 
1 
1 
1 
1 
1 
1 
1 
VECTORS pos double
-0.375484 0.00345288 -0.424985 
-0.284629 -0.414537 -0.432075 
-0.201589 -0.0054366 -0.408212 
-0.158999 0.205633 -0.42528 
-0.116209 0.188118 -0.451819 
-0.290628 0.367302 -0.426561 
-0.0335604 -0.38766 -0.422825 
-0.00346392 -0.00337192 -0.427913 
0.0195927 0.225538 -0.470942 
-0.0764204 0.413621 -0.432566 
0.174483 -0.181147 -0.422705 
0.209792 0.000749668 -0.425675 
0.200342 0.200574 -0.432576 
0.334335 0.436248 -0.359287 
0.337908 0.432246 -0.441579 
0.403977 -0.425392 -0.406656 
0.405387 -0.37493 -0.407296 
0.400633 -0.249565 -0.435339 
0.364846 -0.0485421 -0.417798 
0.416784 0.116435 -0.420802 
-0.357331 0.0212651 -0.354558 
-0.305069 -0.416339 -0.349354 
-0.202147 -0.00507848 -0.310962 
-0.0023191 -0.0014065 -0.344257 
-0.0176583 0.246126 -0.401338 
0.199814 -0.218056 -0.359764 
0.214887 0.00906079 -0.349866 
0.236683 0.0999656 -0.442054 
0.338819 0.436011 -0.321447 
0.374488 -0.443954 -0.320994 
0.387368 -0.334913 -0.319338 
0.349667 -0.185432 -0.43534 
0.449977 0.187382 -0.376748 
0.424593 0.152949 -0.35064 
0.428221 0.308443 -0.46068 
0.418848 0.340775 -0.401929 
-0.344474 0.0379384 -0.284822 
-0.179531 -0.415271 -0.415885 
-0.208696 0.00450219 -0.212693 
-0.137783 0.157922 -0.33824 
-0.00534146 -0.00656567 -0.257886 
-0.00733401 0.218698 -0.350059 
-0.0391376 0.312387 -0.346834 
0.294121 0.330575 -0.441667 
0.208431 0.0144861 -0.274155 
0.42222 -0.204903 -0.379191 
0.415301 -0.0935204 -0.351058 
0.442851 0.245981 -0.410219 
-0.363487 0.0109647 -0.223388 
-0.285657 0.0757021 -0.224862 
-0.230367 0.216112 -0.276436 
-0.0433571 0.141352 -0.393039 
-0.0102364 -0.169989 0.202539 
-0.00797637 -0.0111004 -0.167027 
0.206011 0.0147275 -0.199326 
0.209409 0.0714786 -0.226013 
0.209556 0.197971 -0.397473 
0.3824 -0.282284 -0.244111 
0.416504 -0.13279 -0.293537 
0.379758 0.15095 -0.266274 
0.426571 0.408221 -0.336848 
-0.423741 -0.0117531 -0.149436 
0.00554674 0.0119209 -0.0772279 
-0.071009 0.19418 -0.26377 
0.202837 0.0129828 -0.123591 
0.223038 0.267482 -0.340155 
0.214188 0.180415 -0.343393 
0.392315 0.436407 -0.250911 
0.369924 0.449769 -0.160978 
0.412032 0.427619 -0.294984 
-0.353013 -0.203716 0.142226 
-0.122143 0.225394 -0.210946 
0.210615 0.0143097 -0.0477449 
0.421089 0.386804 -0.240072 
-0.302574 -0.203363 0.223769 
-0.163766 0.286397 -0.161551 
-0.225757 0.0347519 0.130703 
-0.0959244 0.252623 -0.144005 
-0.034076 0.361232 -0.251032 
-0.0575551 0.402018 -0.268013 
0.201876 -0.00768612 0.0287092 
0.193582 0.194176 -0.24738 
0.402352 -0.21773 -0.172416 
-0.20568 0.00341699 0.222057 
-0.140692 0.184544 -0.0616752 
-0.0884698 0.208236 -0.121204 
-0.0274435 -0.0304666 0.244695 
-0.0511796 -0.0698563 0.164993 
0.210393 -0.0131666 0.102996 
0.390253 0.0102306 -0.146611 
0.39713 0.421575 -0.0870907 
-0.434009 -0.188568 0.315134 
-0.404233 0.420525 0.0119413 
-0.173066 0.180633 0.0136528 
0.211317 -0.017315 0.176817 
0.183533 0.208223 -0.160038 
0.392381 -0.0537763 -0.0795553 
-0.425887 -0.205185 0.40615 
-0.193038 -0.417013 0.00585621 
-0.207458 0.1943 0.103922 
0.180977 -0.000840511 0.249601 
0.177303 0.197355 -0.0554369 
-0.0603991 -0.183212 0.360595 
-0.203732 -0.057381 0.292818 
0.00195472 -0.386246 0.108461 
-0.00477246 0.392829 0.0413416 
0.200908 0.191577 0.0111821 
0.386405 -0.125499 -0.02957 
0.383074 0.398291 0.159589 
0.00328048 -0.401941 0.201602 
-0.0375459 -0.0967167 0.374518 
-0.5 0.139123 -0.450013 
-0.5 0.430314 -0.00494827 
0.5 -0.207635 -0.337716 
0.5 -0.103677 -0.316546 
0.500001 0.397005 -0.159294 
0.5 0.139635 -0.39156 
0.400475 -0.5 -0.363278 
-0.0976571 0.500002 -0.344485 
0.411142 0.500012 -0.356192 
-0.450006 0.139123 -0.5 
0.210082 -0.0114179 -0.500037 
-0.260732 -0.419197 -0.500011 
0.383546 0.0932365 -0.5 
-0.00386783 -0.00405989 -0.5 
0.407479 -0.400781 -0.5 
-0.385178 -0.00773274 -0.500013 
-0.404569 -0.401161 -0.500003 
-0.022083 0.225308 -0.500045 
0.206377 -0.401113 -0.500003 
-0.0539396 0.403989 -0.500009 
-0.256032 0.36825 -0.500003 
-0.0341543 -0.386402 -0.500005 
0.454926 0.350971 -0.500004 
-0.178425 -0.390773 -0.500005 
0.349102 -0.0137201 -0.5 
-0.297865 0.179992 -0.500001 
0.399171 0.279809 -0.500019 
0.0555113 0.347415 -0.500003 
0.406831 -0.296959 -0.5 
-0.148479 0.200035 -0.500029 
0.294868 0.0528662 -0.500003 
0.0347535 0.182682 -0.500013 
0.176221 0.218192 -0.500018 
0.208865 0.1445 -0.500003 
0.0504464 0.452222 -0.500003 
0.165784 -0.175404 -0.500007 
0.251991 0.365225 -0.500009 
0.356548 0.424725 -0.500012 
0.3049 -0.168691 -0.5 
-0.20318 -0.00313329 -0.5 
-0.233655 -0.220277 0.5 
-0.0075599 -0.00453201 0.5 
-0.404541 -0.208372 0.5 
VECTORS dir_n double
-0.06438 -0.0682667 -0.995588 
0.600773 -0.202331 -0.773391 
0.0329718 -0.0477282 0.998316 
0.173972 0.145293 -0.973973 
-0.690189 0.627088 -0.361109 
0.31025 0.105825 -0.944747 
0.186139 -0.131748 -0.97365 
-0.00980287 -0.0166969 -0.999813 
0.505609 -0.849869 -0.1486 
0.459134 -0.062208 -0.886186 
0.0576224 -0.11578 -0.991602 
-0.149941 -0.0315515 -0.988191 
-0.687162 0.508747 -0.518639 
-0.465082 -0.30235 -0.832036 
-0.5366 -0.222339 0.814018 
0.0700474 0.492267 -0.867621 
0.0418507 -0.517109 -0.854896 
0.123956 -0.947904 -0.293449 
-0.314929 0.696575 -0.644673 
-0.665014 -0.464164 -0.585071 
-0.171614 -0.244844 -0.954254 
-0.633184 0.00338184 -0.773994 
-0.0436856 0.0541026 0.997579 
-0.0174387 -0.0300674 -0.999396 
0.28575 -0.00141859 -0.958303 
0.00199421 0.496418 -0.868081 
-0.0931917 -0.16436 -0.981988 
-0.844796 0.177559 -0.50477 
-0.705488 -0.31601 0.634369 
0.51974 -0.12099 -0.845714 
0.318564 -0.283381 -0.904551 
-0.895415 0.334823 -0.293473 
0.00089033 -0.955101 -0.296278 
0.508738 -0.266387 -0.818672 
-0.0905012 0.983772 0.154925 
-0.260093 -0.062615 -0.963551 
0.0502262 -0.291601 -0.95522 
-0.044624 0.597536 -0.800599 
-0.0882134 0.138735 0.986393 
-0.212873 0.471958 -0.855535 
0.0844934 0.144516 -0.985888 
0.0287206 0.523504 -0.851539 
-0.0445339 -0.842217 -0.537296 
-0.401453 0.314058 -0.86035 
0.00863967 -0.0682475 -0.997631 
-0.555732 0.0546326 -0.829564 
-0.694356 0.203161 -0.690359 
0.141657 -0.217045 0.965829 
0.627617 -0.0735435 -0.775041 
-0.380483 -0.786664 -0.486202 
0.0552794 0.110216 -0.992369 
-0.945511 0.14128 0.293341 
-0.41275 0.350423 0.840738 
-0.0240076 -0.0404661 -0.998892 
0.179258 0.144938 -0.973067 
-0.340078 -0.92857 -0.148679 
0.0211209 -0.490069 -0.871428 
-0.219174 -0.769283 -0.600139 
0.67021 0.582281 -0.460182 
0.388237 0.306363 -0.869145 
-0.0393582 -0.915029 -0.401463 
0.955036 0.188024 0.229246 
0.251133 0.427905 0.868233 
0.388587 0.439935 -0.809603 
-0.114539 0.191549 -0.974777 
0.153623 -0.293472 -0.943544 
0.023028 0.545494 -0.837799 
-0.541546 0.247306 0.803473 
-0.0936786 -0.0199661 -0.995402 
-0.468105 0.336584 -0.817061 
-0.316606 0.0279454 -0.948145 
0.181748 -0.4814 -0.857451 
-0.241087 0.138468 -0.960575 
0.128076 0.309747 -0.942154 
0.707793 0.0352659 0.705539 
-0.893981 0.393298 0.214742 
0.259497 -0.256104 0.931167 
-0.224863 0.347843 -0.910188 
0.235962 -0.0142267 0.971658 
0.220017 -0.799553 -0.558845 
-0.156241 0.214798 -0.96408 
0.138873 -0.378383 -0.915173 
-0.179894 -0.521874 -0.833838 
-0.145956 0.377203 -0.914557 
0.502323 0.55184 -0.665691 
-0.60404 -0.606358 0.517171 
-0.516343 -0.557322 -0.650217 
-0.0386722 0.239876 0.970033 
0.0675168 0.244114 -0.967393 
-0.285072 0.827991 -0.482871 
-0.121507 0.221224 -0.967624 
-0.264836 -0.268972 0.926022 
0.920551 -0.195875 0.337963 
0.558659 -0.397346 -0.728022 
0.0888664 0.0461025 -0.994976 
-0.142484 0.0106751 -0.989739 
0.242512 0.452209 -0.858309 
0.429434 -0.0641056 0.90082 
0.358246 -0.349758 -0.865638 
0.626745 -0.356701 -0.692788 
0.131443 -0.444895 -0.885884 
-0.307556 0.103936 -0.945837 
-0.289889 -0.79203 -0.537264 
0.106141 0.850185 -0.515674 
-0.383918 0.246969 -0.889727 
0.0687491 -0.360976 0.930038 
-0.0973477 0.252545 -0.962676 
-0.122975 0.982279 -0.141441 
0.0573042 -0.116788 -0.991502 
-0.380536 0.147133 -0.912986 
-0.1714 -0.951913 0.253935 
1 0 0 
1 0 0 
-1 0 0 
-1 0 0 
-1 -1.77738e-16 -4.76391e-17 
-1 0 0 
1.30303e-16 1 0 
1.23301e-16 -1 -1.47648e-16 
1.05553e-16 -1 1.15127e-16 
4.25553e-17 0 1 
2.97586e-17 -2.35851e-16 1 
7.82052e-17 -2.31168e-17 1 
1.15913e-17 0 1 
2.94247e-20 0 1 
1.54017e-17 0 1 
2.42089e-17 2.5307e-17 1 
-4.67426e-17 -1.98765e-17 1 
6.86207e-17 1.11552e-16 1 
2.23046e-16 -4.14605e-17 1 
9.58703e-18 2.53493e-17 1 
5.10203e-17 -4.66441e-18 1 
4.08759e-17 -2.52101e-17 1 
6.39459e-17 -5.10262e-17 1 
8.09737e-17 8.65069e-17 1 
2.08426e-17 0 1 
-8.79288e-17 1.89444e-16 1 
-6.79541e-17 2.29179e-17 1 
4.15221e-17 -7.10821e-17 1 
4.65813e-17 0 1 
3.85975e-17 -3.79052e-17 1 
-4.43456e-18 1.06498e-17 1 
1.55644e-16 1.15763e-16 1 
9.66397e-20 5.83853e-17 1 
3.86228e-17 7.59847e-17 1 
-2.71295e-17 3.82154e-17 1 
5.05813e-17 -5.54661e-18 1 
3.08557e-17 6.30318e-17 1 
8.82199e-17 -4.16583e-17 1 
3.93905e-17 0 1 
1.52945e-17 0 -1 
6.36721e-18 0 1 
2.56397e-19 0 1 
9.95358e-19 0 -1 
VECTORS dir_s double
-0.468129 -0.879009 0.0905448 
-0.628558 0.478213 -0.613374 
-0.458214 0.886978 0.0575389 
-0.973776 -0.121866 -0.192117 
0.117416 -0.395362 -0.91099 
-0.950611 0.0441021 -0.307236 
0.332314 0.941009 -0.0638003 
-0.495435 -0.868429 0.0193604 
0.0141435 0.180379 -0.983495 
-0.739314 -0.579846 -0.342336 
-0.398153 0.908178 -0.129177 
0.888196 -0.443351 -0.120613 
0.479035 -0.219425 -0.849929 
0.817579 0.213749 -0.534674 
0.53983 0.650988 0.533665 
-0.315748 -0.814097 -0.487391 
0.219161 0.839558 -0.497103 
-0.197886 0.266175 -0.943394 
0.0164313 -0.675133 -0.737513 
0.513553 0.284578 -0.809493 
-0.788867 -0.546055 0.281979 
0.772798 -0.0529874 -0.632436 
0.521901 -0.850213 0.0689653 
0.503104 0.863527 -0.0347585 
-0.569849 -0.804241 -0.168729 
0.0174215 -0.867968 -0.496314 
0.858845 0.485678 -0.162795 
0.248708 0.965545 -0.076602 
0.583692 0.248615 0.772977 
-0.805163 0.261589 -0.532243 
-0.562792 -0.824413 0.0600715 
0.268948 -0.118542 -0.955832 
0.13797 -0.293327 0.946004 
-0.368507 0.79203 -0.486715 
0.933439 0.0295693 0.357515 
0.219422 -0.975621 0.00417021 
-0.768091 -0.622602 0.149676 
-0.0363334 -0.801838 -0.596436 
0.653536 -0.739263 0.162422 
-0.0736492 0.865363 0.495705 
-0.497404 -0.851214 -0.167404 
0.284341 -0.820976 -0.495125 
0.450116 0.463228 -0.763423 
0.512056 0.855805 0.0734648 
0.941417 0.336917 -0.0148955 
-0.782988 -0.3698 0.500177 
-0.10879 0.918663 0.379767 
0.119528 -0.964779 -0.23434 
-0.156219 0.963383 -0.217919 
-0.369438 0.611266 -0.699907 
0.218552 0.968452 0.119734 
-0.291798 0.0319839 -0.955945 
-0.829013 0.237846 -0.506129 
0.504995 0.861839 -0.0470511 
-0.774492 -0.589123 -0.230427 
0.773583 -0.186337 -0.605679 
0.148701 0.863467 -0.481988 
0.578742 0.392697 -0.714736 
-0.666681 0.199879 -0.718043 
0.604993 -0.796163 -0.0103943 
-0.0808835 0.403373 -0.911454 
0.24274 -0.0518781 -0.968703 
-0.439333 -0.748879 0.496152 
0.817227 -0.570411 0.0822873 
0.549454 -0.80527 -0.222802 
-0.340987 0.880478 -0.329374 
0.261066 -0.812225 -0.521666 
0.745734 -0.299889 0.594934 
0.866888 0.49005 -0.0914136 
0.671856 -0.465048 -0.576489 
-0.947903 0.0277937 0.317344 
0.807443 -0.424626 0.409546 
0.965464 0.134952 -0.222861 
-0.991639 0.0248958 -0.126618 
-0.706086 0.00462767 0.708111 
0.00234024 -0.475118 0.879919 
-0.149743 -0.963206 -0.223185 
0.939227 -0.171304 -0.297503 
0.519133 -0.843411 -0.138418 
0.473192 0.588446 -0.655607 
0.978491 0.166773 -0.12142 
0.409637 0.863309 -0.294779 
-0.654772 -0.56907 0.497426 
0.120757 0.924337 0.361965 
-0.108394 -0.723608 -0.681646 
0.138918 0.558889 0.817524 
0.785902 -0.00674041 -0.618314 
0.43354 0.878661 -0.199995 
-0.868859 -0.46223 -0.17728 
0.748519 0.506978 0.427425 
-0.626102 0.739365 0.247659 
-0.933974 0.310463 -0.176933 
0.389715 0.519641 -0.760326 
-0.241522 0.761794 -0.601114 
0.58103 0.80896 0.0893782 
0.916451 -0.376329 -0.135993 
-0.65869 -0.572791 -0.487891 
-0.874465 0.219697 0.432486 
-0.11864 0.902607 -0.413794 
-0.736398 0.0195534 -0.676265 
-0.39944 0.794113 -0.458074 
0.946131 -0.0723333 -0.3156 
-0.0758504 -0.54059 0.83786 
-0.223551 -0.484924 -0.845502 
0.115547 -0.943144 -0.311655 
-0.607214 -0.754816 -0.248081 
-0.603349 -0.784235 -0.144722 
-0.53642 -0.185701 -0.823267 
-0.998104 -0.0290685 -0.0542618 
0.911927 0.223641 -0.344054 
-0.514451 -0.13334 -0.84709 
9.98077e-17 -5.05086e-05 -1 
2.38838e-17 0.428742 -0.903427 
5.96742e-16 0.304372 -0.952553 
2.28773e-16 0.278744 -0.960366 
6.97186e-16 -0.595257 0.803535 