# vtk DataFile Version 2.0
Generated by NetDEM
ASCII 
DATASET POLYDATA
POINTS 534 double
-0.417921 -0.405006 -0.463153 
-0.424198 -0.400015 -0.391438 
-0.410421 -0.00616929 -0.463784 
-0.405069 -0.00948489 -0.386849 
-0.449995 0.117547 -0.450031 
-0.449986 0.175564 -0.368609 
-0.448983 0.34704 -0.450024 
-0.356726 0.37275 -0.404814 
-0.448983 0.34704 -0.450024 
-0.446935 0.44702 -0.450006 
-0.195304 -0.0091192 -0.45001 
-0.172106 0.0786623 -0.449948 
-0.173048 0.17193 -0.463809 
-0.172106 0.0786623 -0.449948 
-0.252804 0.369636 -0.464181 
-0.230343 0.324574 -0.39274 
-0.252804 0.369636 -0.464181 
-0.219648 0.441467 -0.398263 
-0.0544109 -0.399083 -0.461231 
-0.0857803 -0.388789 -0.394457 
-0.152236 -0.141216 -0.45001 
-0.226914 -0.184253 -0.39931 
0.0344967 0.178504 -0.452217 
0.0251166 0.260209 -0.449696 
0.0344967 0.178504 -0.452217 
0.110152 0.136209 -0.399022 
-0.0303654 0.322422 -0.440551 
-0.108583 0.31664 -0.394097 
0.192987 -0.400835 -0.462901 
0.206363 -0.412024 -0.389151 
0.169371 -0.208977 -0.462936 
0.166158 -0.203787 -0.38907 
0.172788 -0.00966905 -0.462804 
0.175826 0.00485681 -0.384027 
0.172788 -0.00966905 -0.462804 
0.252534 -0.0574218 -0.431258 
0.304542 0.404753 -0.410702 
0.370444 0.438438 -0.465059 
0.304542 0.404753 -0.410702 
0.288859 0.37655 -0.316061 
0.304542 0.404753 -0.410702 
0.330556 0.30824 -0.41233 
0.449909 -0.406736 -0.45008 
0.398676 -0.450076 -0.376059 
0.430894 -0.300904 -0.450163 
0.378673 -0.21565 -0.450032 
0.430894 -0.300904 -0.450163 
0.437776 -0.354069 -0.365881 
0.338654 -0.0101829 -0.450008 
0.252534 -0.0574218 -0.431258 
0.381124 0.0915889 -0.450034 
0.323624 0.0642705 -0.372927 
0.381124 0.0915889 -0.450034 
0.450032 0.137666 -0.394138 
-0.424198 -0.400015 -0.391438 
-0.433412 -0.4341 -0.324885 
-0.424198 -0.400015 -0.391438 
-0.326755 -0.412328 -0.394691 
-0.450008 -0.231457 -0.135399 
-0.447961 -0.304566 -0.0672051 
-0.449986 0.175564 -0.368609 
-0.446634 0.102495 -0.300439 
-0.326755 -0.412328 -0.394691 
-0.255078 -0.42375 -0.356558 
-0.31023 0.155706 -0.462347 
-0.286449 0.120163 -0.386895 
-0.1446 0.402267 -0.446022 
-0.146255 0.443362 -0.325654 
-0.1446 0.402267 -0.446022 
-0.108583 0.31664 -0.394097 
-0.1446 0.402267 -0.446022 
-0.219648 0.441467 -0.398263 
-0.0857803 -0.388789 -0.394457 
-0.100406 -0.308673 -0.359041 
0.0251166 0.260209 -0.449696 
-0.0355683 0.22342 -0.380577 
0.206363 -0.412024 -0.389151 
0.260352 -0.321448 -0.345669 
0.166158 -0.203787 -0.38907 
0.20998 -0.199148 -0.302157 
0.166158 -0.203787 -0.38907 
0.161691 -0.30345 -0.373563 
0.175826 0.00485681 -0.384027 
0.163622 0.0471456 -0.323232 
0.194987 0.112205 -0.456572 
0.27361 0.0667855 -0.44401 
0.194987 0.112205 -0.456572 
0.2599 0.176521 -0.445878 
0.194987 0.112205 -0.456572 
0.110152 0.136209 -0.399022 
0.288859 0.37655 -0.316061 
0.24831 0.450005 -0.261683 
0.437776 -0.354069 -0.365881 
0.450042 -0.313519 -0.275369 
0.450032 0.137666 -0.394138 
0.449983 0.0568008 -0.335336 
0.42489 0.339562 -0.456145 
0.428567 0.367124 -0.375829 
0.42489 0.339562 -0.456145 
0.438649 0.255601 -0.459852 
-0.433412 -0.4341 -0.324885 
-0.435718 -0.448188 -0.243675 
-0.290673 0.267158 -0.450014 
-0.230343 0.324574 -0.39274 
-0.439053 0.274349 -0.382057 
-0.423158 0.242086 -0.46396 
-0.439053 0.274349 -0.382057 
-0.422406 0.259573 -0.284578 
-0.181766 -0.371841 -0.452259 
-0.160374 -0.4459 -0.389853 
-0.347223 0.335076 -0.33037 
-0.356726 0.37275 -0.404814 
-0.0355683 0.22342 -0.380577 
0.00626202 0.292662 -0.330507 
-0.0355683 0.22342 -0.380577 
-0.107984 0.274973 -0.30701 
0.207129 -0.432773 -0.315819 
0.0976664 -0.449266 -0.329126 
0.207129 -0.432773 -0.315819 
0.259419 -0.43861 -0.23036 
0.27361 0.0667855 -0.44401 
0.323624 0.0642705 -0.372927 
0.378673 -0.21565 -0.450032 
0.450008 -0.207378 -0.380471 
0.378673 -0.21565 -0.450032 
0.336607 -0.177092 -0.367923 
0.382316 -0.10618 -0.450016 
0.450004 -0.104712 -0.376433 
0.450003 0.233186 -0.364413 
0.448325 0.22103 -0.26518 
0.450003 0.233186 -0.364413 
0.438649 0.255601 -0.459852 
-0.435718 -0.448188 -0.243675 
-0.39371 -0.44226 -0.164136 
-0.171372 -0.195376 -0.164174 
-0.140749 -0.100887 -0.152663 
-0.171372 -0.195376 -0.164174 
-0.100733 -0.251099 -0.20774 
-0.160374 -0.4459 -0.389853 
-0.163113 -0.384338 -0.322985 
-0.0577128 0.126765 -0.441173 
-0.133238 0.141153 -0.381946 
-0.356726 0.37275 -0.404814 
-0.313949 0.435667 -0.340889 
0.0976664 -0.449266 -0.329126 
0.0150069 -0.431795 -0.312318 
0.021334 0.0476781 -0.450059 
0.0316594 0.0423796 -0.353714 
0.128255 0.0646421 -0.260744 
0.204602 0.144238 -0.25086 
0.128255 0.0646421 -0.260744 
0.0517386 0.11701 -0.324601 
0.128255 0.0646421 -0.260744 
0.110976 0.00207654 -0.175407 
0.2599 0.176521 -0.445878 
0.328705 0.209227 -0.398581 
0.2599 0.176521 -0.445878 
0.235412 0.230642 -0.377141 
0.155853 0.450014 -0.450031 
0.207821 0.386055 -0.39343 
0.357313 -0.314271 -0.321528 
0.394217 -0.224055 -0.299195 
0.357313 -0.314271 -0.321528 
0.351003 -0.411051 -0.297171 
0.450004 -0.104712 -0.376433 
0.449559 -0.142151 -0.283714 
0.383182 0.167387 -0.325914 
0.307126 0.137283 -0.268423 
0.383182 0.167387 -0.325914 
0.328705 0.209227 -0.398581 
0.330556 0.30824 -0.41233 
0.328705 0.209227 -0.398581 
0.428567 0.367124 -0.375829 
0.399127 0.298639 -0.307846 
0.428567 0.367124 -0.375829 
0.397154 0.448725 -0.357163 
-0.39371 -0.44226 -0.164136 
-0.382846 -0.373427 -0.0990486 
-0.39371 -0.44226 -0.164136 
-0.461937 -0.451952 -0.103368 
-0.382846 -0.373427 -0.0990486 
-0.447961 -0.304566 -0.0672051 
-0.382846 -0.373427 -0.0990486 
-0.326236 -0.439787 -0.0218279 
-0.0922561 -0.201257 -0.101061 
-0.0615722 -0.294929 -0.117885 
0.0731297 -0.348831 -0.379219 
0.0150069 -0.431795 -0.312318 
0.0316594 0.0423796 -0.353714 
0.0517386 0.11701 -0.324601 
0.235412 0.230642 -0.377141 
0.226255 0.184711 -0.315898 
0.450008 -0.207378 -0.380471 
0.394217 -0.224055 -0.299195 
0.397154 0.448725 -0.357163 
0.437581 0.39901 -0.291456 
-0.461937 -0.451952 -0.103368 
-0.444458 -0.449998 0.0284734 
-0.313949 0.435667 -0.340889 
-0.379456 0.449987 -0.266743 
-0.313949 0.435667 -0.340889 
-0.219648 0.441467 -0.398263 
-0.163113 -0.384338 -0.322985 
-0.21553 -0.366795 -0.215565 
-0.163113 -0.384338 -0.322985 
-0.140167 -0.322477 -0.271784 
-0.100733 -0.251099 -0.20774 
-0.140167 -0.322477 -0.271784 
-0.100733 -0.251099 -0.20774 
-0.159844 -0.305948 -0.148613 
-0.230343 0.324574 -0.39274 
-0.168066 0.354299 -0.318645 
-0.230343 0.324574 -0.39274 
-0.208392 0.274639 -0.323558 
-0.100406 -0.308673 -0.359041 
-0.0157599 -0.345777 -0.312015 
-0.100406 -0.308673 -0.359041 
-0.140167 -0.322477 -0.271784 
0.0517386 0.11701 -0.324601 
0.0226524 0.184192 -0.251891 
0.192859 -0.422168 -0.155771 
0.0912687 -0.442324 -0.161241 
0.237187 -0.142851 -0.381344 
0.336607 -0.177092 -0.367923 
0.237187 -0.142851 -0.381344 
0.252608 -0.0780182 -0.325394 
0.202225 0.311928 -0.334186 
0.229257 0.325551 -0.238574 
0.202225 0.311928 -0.334186 
0.207821 0.386055 -0.39343 
0.207821 0.386055 -0.39343 
0.147805 0.450008 -0.345409 
0.437581 0.39901 -0.291456 
0.446341 0.374136 -0.200167 
-0.208392 0.274639 -0.323558 
-0.168066 0.354299 -0.318645 
0.107245 -0.449933 0.0238732 
0.110244 -0.43506 -0.0634303 
-0.107984 0.274973 -0.30701 
-0.129186 0.189075 -0.307002 
0.00626202 0.292662 -0.330507 
-0.0392536 0.267982 -0.22698 
0.0912687 -0.442324 -0.161241 
0.110244 -0.43506 -0.0634303 
0.265566 -0.118896 -0.218083 
0.341186 -0.0546857 -0.258498 
0.226255 0.184711 -0.315898 
0.204602 0.144238 -0.25086 
0.226255 0.184711 -0.315898 
0.154158 0.229341 -0.267097 
0.394217 -0.224055 -0.299195 
0.446988 -0.233991 -0.214866 
0.323624 0.0642705 -0.372927 
0.361755 0.0398287 -0.283787 
0.399127 0.298639 -0.307846 
0.316071 0.243059 -0.304334 
0.446341 0.374136 -0.200167 
0.449952 0.273059 -0.179806 
0.446341 0.374136 -0.200167 
0.411957 0.409882 -0.105245 
-0.326236 -0.439787 -0.0218279 
-0.336628 -0.413765 0.0736325 
-0.446634 0.102495 -0.300439 
-0.425917 0.136235 -0.208614 
-0.422406 0.259573 -0.284578 
-0.450001 0.337206 -0.227925 
-0.143954 0.367246 -0.0342032 
-0.101445 0.379496 -0.12055 
0.0150069 -0.431795 -0.312318 
-0.0499726 -0.396936 -0.251664 
-0.0392536 0.267982 -0.22698 
-0.061883 0.311396 -0.161715 
0.204602 0.144238 -0.25086 
0.224402 0.196518 -0.166592 
0.24831 0.450005 -0.261683 
0.175918 0.446505 -0.192807 
0.450042 -0.313519 -0.275369 
0.446988 -0.233991 -0.214866 
0.450042 -0.313519 -0.275369 
0.423545 -0.386418 -0.21236 
0.361755 0.0398287 -0.283787 
0.341186 -0.0546857 -0.258498 
-0.242594 -0.440659 -0.0653439 
-0.234477 -0.427199 -0.150885 
-0.242594 -0.440659 -0.0653439 
-0.215171 -0.33823 -0.0543355 
-0.298261 0.214028 -0.153125 
-0.223266 0.203775 -0.229248 
-0.298261 0.214028 -0.153125 
-0.354052 0.203014 -0.228037 
-0.379456 0.449987 -0.266743 
-0.418825 0.449367 -0.174848 
-0.21553 -0.366795 -0.215565 
-0.139444 -0.414012 -0.204404 
-0.21553 -0.366795 -0.215565 
-0.234477 -0.427199 -0.150885 
-0.0615722 -0.294929 -0.117885 
-0.0566436 -0.323258 -0.0221197 
-0.0615722 -0.294929 -0.117885 
-0.0577008 -0.380378 -0.162595 
-0.0133526 -0.246516 0.025163 
-0.0566436 -0.323258 -0.0221197 
-0.168066 0.354299 -0.318645 
-0.165263 0.335624 -0.208566 
-0.0499726 -0.396936 -0.251664 
-0.0577008 -0.380378 -0.162595 
0.268497 -0.416366 -0.0787489 
0.304035 -0.328752 -0.119927 
0.328043 -0.106002 -0.0256527 
0.383057 -0.141079 -0.0872373 
0.154158 0.229341 -0.267097 
0.164037 0.267824 -0.191969 
0.423545 -0.386418 -0.21236 
0.369979 -0.450065 -0.156976 
0.446988 -0.233991 -0.214866 
0.450024 -0.169984 -0.138136 
0.307126 0.137283 -0.268423 
0.37961 0.173513 -0.209835 
0.411957 0.409882 -0.105245 
0.435744 0.396212 -0.0227741 
-0.215171 -0.33823 -0.0543355 
-0.244892 -0.343825 0.0385393 
-0.435639 0.399542 0.00175468 
-0.450002 0.449451 -0.0796753 
-0.139444 -0.414012 -0.204404 
-0.234477 -0.427199 -0.150885 
-0.139444 -0.414012 -0.204404 
-0.0577008 -0.380378 -0.162595 
-0.165263 0.335624 -0.208566 
-0.156976 0.433135 -0.204936 
-0.0577008 -0.380378 -0.162595 
0.00350715 -0.376267 -0.0961549 
0.304035 -0.328752 -0.119927 
0.375646 -0.304721 -0.179611 
0.164037 0.267824 -0.191969 
0.224402 0.196518 -0.166592 
0.202814 0.440179 -0.0962136 
0.274738 0.448342 -0.165199 
0.450005 0.148423 -0.143407 
0.37961 0.173513 -0.209835 
0.435744 0.396212 -0.0227741 
0.411556 0.449239 0.0317796 
-0.328579 -0.011836 0.016702 
-0.398862 0.00796815 -0.047243 
-0.156976 0.433135 -0.204936 
-0.101445 0.379496 -0.12055 
0.00350715 -0.376267 -0.0961549 
0.00736064 -0.409974 -0.0100442 
0.100628 0.442173 -0.127176 
0.175918 0.446505 -0.192807 
0.100628 0.442173 -0.127176 
0.0135237 0.377311 -0.0989358 
0.383057 -0.141079 -0.0872373 
0.450024 -0.169984 -0.138136 
0.224402 0.196518 -0.166592 
0.241444 0.177535 -0.0777667 
0.448325 0.22103 -0.26518 
0.449952 0.273059 -0.179806 
-0.336628 -0.413765 0.0736325 
-0.261326 -0.351292 0.147495 
-0.130825 -0.343704 0.0417447 
-0.0566436 -0.323258 -0.0221197 
-0.130825 -0.343704 0.0417447 
-0.176767 -0.434463 0.0521615 
-0.19566 0.425837 -0.0986867 
-0.101445 0.379496 -0.12055 
-0.19566 0.425837 -0.0986867 
-0.234101 0.384102 0.00890606 
0.00736064 -0.409974 -0.0100442 
-0.0140436 -0.422409 0.0718789 
-0.061883 0.311396 -0.161715 
0.0135237 0.377311 -0.0989358 
0.0135237 0.377311 -0.0989358 
-0.0215285 0.423004 -0.0265887 
0.0135237 0.377311 -0.0989358 
-0.0343179 0.307472 -0.0220486 
0.241444 0.177535 -0.0777667 
0.272229 0.198422 -0.00198549 
0.272229 0.198422 -0.00198549 
0.191174 0.204821 0.0673125 
0.421 -0.283909 0.173126 
0.450015 -0.235033 0.0908987 
0.268488 0.0400325 0.378715 
0.191907 0.0998849 0.356837 
0.191174 0.204821 0.0673125 
0.201622 0.230703 0.169077 
0.458739 0.283501 0.303122 
0.425522 0.396552 0.272673 
0.247594 -0.407429 0.362161 
0.210497 -0.31384 0.40212 
-0.450002 0.449451 -0.0796753 
-0.5 0.449452 -0.0796632 
-0.461937 -0.451952 -0.103368 
-0.500004 -0.431695 -0.0921123 
-0.433412 -0.4341 -0.324885 
-0.500004 -0.404965 -0.347179 
-0.450008 -0.231457 -0.135399 
-0.5 -0.231454 -0.135346 
-0.450001 0.337206 -0.227925 
-0.5 0.33719 -0.227903 
0.450032 0.137666 -0.394138 
0.5 0.137667 -0.394131 
0.450003 0.233186 -0.364413 
0.5 0.233187 -0.364411 
0.450005 0.148423 -0.143407 
0.5 0.14842 -0.143405 
0.450015 -0.235033 0.0908987 
0.5 -0.23504 0.0909458 
0.450008 -0.207378 -0.380471 
0.5 -0.207378 -0.380471 
0.450004 -0.104712 -0.376433 
0.5 -0.104713 -0.376433 
0.437581 0.39901 -0.291456 
0.5 0.397831 -0.278606 
0.450042 -0.313519 -0.275369 
0.5 -0.313518 -0.275371 
0.450024 -0.169984 -0.138136 
0.5 -0.169987 -0.138135 
-0.0961146 -0.461487 0.244574 
-0.085632 -0.5 0.222682 
0.398676 -0.450076 -0.376059 
0.398681 -0.5 -0.376062 
-0.160374 -0.4459 -0.389853 
-0.15192 -0.500004 -0.377935 
-0.39371 -0.44226 -0.164136 
-0.382151 -0.500009 -0.180416 
0.369979 -0.450065 -0.156976 
0.369984 -0.5 -0.156977 
0.292588 -0.440962 0.216979 
0.267502 -0.500008 0.181724 
-0.146255 0.443362 -0.325654 
-0.132431 0.5 -0.316554 
0.147805 0.450008 -0.345409 
0.147807 0.5 -0.345409 
0.155853 0.450014 -0.450031 
0.155854 0.5 -0.450031 
0.397154 0.448725 -0.357163 
0.409991 0.500006 -0.378848 
0.24831 0.450005 -0.261683 
0.248308 0.5 -0.261679 
-0.290673 0.267158 -0.450014 
-0.290673 0.267158 -0.5 
0.172788 -0.00966905 -0.462804 
0.19758 -0.00814461 -0.500008 
-0.309576 -0.208944 -0.450007 
-0.309573 -0.208947 -0.5 
0.42489 0.339562 -0.456145 
0.455097 0.354296 -0.500007 
-0.181766 -0.371841 -0.452259 
-0.188783 -0.389384 -0.500019 
-0.152236 -0.141216 -0.45001 
-0.152236 -0.141219 -0.5 
-0.410421 -0.00616929 -0.463784 
-0.394822 -0.00831035 -0.500006 
-0.417921 -0.405006 -0.463153 
-0.404313 -0.401371 -0.500029 
0.438649 0.255601 -0.459852 
0.426649 0.26791 -0.50001 
0.021334 0.0476781 -0.450059 
0.0215795 0.0453136 -0.500013 
0.338654 -0.0101829 -0.450008 
0.338654 -0.0101829 -0.5 
0.272242 -0.195975 -0.450007 
0.272241 -0.195973 -0.5 
-0.00227657 0.437587 -0.464684 
-0.00631672 0.431335 -0.500003 
-0.448983 0.34704 -0.450024 
-0.448983 0.347041 -0.5 
0.449775 -0.0184426 -0.450007 
0.449775 -0.0184348 -0.5 
0.370444 0.438438 -0.465059 
0.350139 0.447463 -0.500015 
-0.195304 -0.0091192 -0.45001 
-0.195302 -0.0091197 -0.5 
0.449909 -0.406736 -0.45008 
0.449908 -0.406737 -0.5 
0.254462 0.331608 -0.463916 
0.253596 0.324161 -0.500007 
-0.423158 0.242086 -0.46396 
-0.426004 0.253296 -0.50001 
-0.0558508 -0.0863065 -0.450007 
-0.0558511 -0.086307 -0.5 
-0.173048 0.17193 -0.463809 
-0.161547 0.163897 -0.500003 
-0.272168 -0.428605 -0.458767 
-0.281038 -0.42494 -0.500001 
0.192987 -0.400835 -0.462901 
0.210769 -0.430152 -0.500037 
0.0251166 0.260209 -0.449696 
0.0152675 0.257295 -0.500022 
0.0508304 -0.0922782 -0.449886 
0.0648467 -0.0916597 -0.500003 
0.160052 0.209696 -0.465031 
0.112809 0.210565 -0.500004 
0.378673 -0.21565 -0.450032 
0.378674 -0.215648 -0.5 
-0.252804 0.369636 -0.464181 
-0.25995 0.356613 -0.500033 
0.169371 -0.208977 -0.462936 
0.158013 -0.198976 -0.500032 
0.430894 -0.300904 -0.450163 
0.430892 -0.300907 -0.5 
0.381124 0.0915889 -0.450034 
0.381128 0.0915894 -0.5 
0.155853 0.450014 -0.450031 
0.155854 0.450014 -0.5 
0.27361 0.0667855 -0.44401 
0.289185 0.0422324 -0.500005 
-0.31023 0.155706 -0.462347 
-0.316206 0.148374 -0.500006 
-0.0577128 0.126765 -0.441173 
-0.0945689 0.153196 -0.500002 
-0.446935 0.44702 -0.450006 
-0.446934 0.447019 -0.5 
-0.0303654 0.322422 -0.440551 
-0.0310703 0.335881 -0.500004 
-0.449808 -0.203596 -0.450007 
-0.449808 -0.203596 -0.5 
-0.449995 0.117547 -0.450031 
-0.449996 0.117546 -0.5 
0.0344967 0.178504 -0.452217 
0.0381543 0.16384 -0.500009 
0.2599 0.176521 -0.445878 
0.274795 0.19047 -0.500027 
0.194987 0.112205 -0.456572 
0.193473 0.140779 -0.500022 
0.382316 -0.10618 -0.450016 
0.382316 -0.106181 -0.5 
-0.1446 0.402267 -0.446022 
-0.119947 0.41682 -0.500007 
-0.0544109 -0.399083 -0.461231 
-0.0982025 -0.419032 -0.500033 
-0.172106 0.0786623 -0.449948 
-0.169015 0.0755294 -0.500004 
LINES 267 801
2 0 1
2 2 3
2 4 5
2 6 7
2 8 9
2 10 11
2 12 13
2 14 15
2 16 17
2 18 19
2 20 21
2 22 23
2 24 25
2 26 27
2 28 29
2 30 31
2 32 33
2 34 35
2 36 37
2 38 39
2 40 41
2 42 43
2 44 45
2 46 47
2 48 49
2 50 51
2 52 53
2 54 55
2 56 57
2 58 59
2 60 61
2 62 63
2 64 65
2 66 67
2 68 69
2 70 71
2 72 73
2 74 75
2 76 77
2 78 79
2 80 81
2 82 83
2 84 85
2 86 87
2 88 89
2 90 91
2 92 93
2 94 95
2 96 97
2 98 99
2 100 101
2 102 103
2 104 105
2 106 107
2 108 109
2 110 111
2 112 113
2 114 115
2 116 117
2 118 119
2 120 121
2 122 123
2 124 125
2 126 127
2 128 129
2 130 131
2 132 133
2 134 135
2 136 137
2 138 139
2 140 141
2 142 143
2 144 145
2 146 147
2 148 149
2 150 151
2 152 153
2 154 155
2 156 157
2 158 159
2 160 161
2 162 163
2 164 165
2 166 167
2 168 169
2 170 171
2 172 173
2 174 175
2 176 177
2 178 179
2 180 181
2 182 183
2 184 185
2 186 187
2 188 189
2 190 191
2 192 193
2 194 195
2 196 197
2 198 199
2 200 201
2 202 203
2 204 205
2 206 207
2 208 209
2 210 211
2 212 213
2 214 215
2 216 217
2 218 219
2 220 221
2 222 223
2 224 225
2 226 227
2 228 229
2 230 231
2 232 233
2 234 235
2 236 237
2 238 239
2 240 241
2 242 243
2 244 245
2 246 247
2 248 249
2 250 251
2 252 253
2 254 255
2 256 257
2 258 259
2 260 261
2 262 263
2 264 265
2 266 267
2 268 269
2 270 271
2 272 273
2 274 275
2 276 277
2 278 279
2 280 281
2 282 283
2 284 285
2 286 287
2 288 289
2 290 291
2 292 293
2 294 295
2 296 297
2 298 299
2 300 301
2 302 303
2 304 305
2 306 307
2 308 309
2 310 311
2 312 313
2 314 315
2 316 317
2 318 319
2 320 321
2 322 323
2 324 325
2 326 327
2 328 329
2 330 331
2 332 333
2 334 335
2 336 337
2 338 339
2 340 341
2 342 343
2 344 345
2 346 347
2 348 349
2 350 351
2 352 353
2 354 355
2 356 357
2 358 359
2 360 361
2 362 363
2 364 365
2 366 367
2 368 369
2 370 371
2 372 373
2 374 375
2 376 377
2 378 379
2 380 381
2 382 383
2 384 385
2 386 387
2 388 389
2 390 391
2 392 393
2 394 395
2 396 397
2 398 399
2 400 401
2 402 403
2 404 405
2 406 407
2 408 409
2 410 411
2 412 413
2 414 415
2 416 417
2 418 419
2 420 421
2 422 423
2 424 425
2 426 427
2 428 429
2 430 431
2 432 433
2 434 435
2 436 437
2 438 439
2 440 441
2 442 443
2 444 445
2 446 447
2 448 449
2 450 451
2 452 453
2 454 455
2 456 457
2 458 459
2 460 461
2 462 463
2 464 465
2 466 467
2 468 469
2 470 471
2 472 473
2 474 475
2 476 477
2 478 479
2 480 481
2 482 483
2 484 485
2 486 487
2 488 489
2 490 491
2 492 493
2 494 495
2 496 497
2 498 499
2 500 501
2 502 503
2 504 505
2 506 507
2 508 509
2 510 511
2 512 513
2 514 515
2 516 517
2 518 519
2 520 521
2 522 523
2 524 525
2 526 527
2 528 529
2 530 531
2 532 533
POINT_DATA 534
SCALARS id int 1
LOOKUP_TABLE default
0
25
2
27
3
28
4
84
4
29
7
58
8
58
9
134
9
159
10
35
11
31
13
38
13
69
14
139
15
40
16
41
17
42
17
147
19
24
19
44
19
98
20
45
21
71
21
46
22
147
23
172
23
48
25
50
25
30
26
226
28
178
30
105
33
78
34
184
34
139
34
159
35
135
38
63
40
116
41
216
41
91
42
67
43
68
43
93
43
69
44
194
46
195
48
148
49
99
49
74
50
75
53
134
54
109
54
179
55
80
59
84
63
164
63
158
65
85
65
90
68
172
71
121
71
146
72
96
73
273
73
74
75
100
76
162
76
131
80
130
83
133
84
129
85
185
88
113
92
193
92
138
92
142
93
123
93
118
94
144
95
170
95
120
96
196
97
223
97
123
98
123
99
173
99
124
100
101
100
125
101
226
101
175
106
206
110
185
113
138
118
168
121
170
124
149
125
150
129
204
129
159
130
205
130
155
131
155
131
181
134
209
134
153
135
160
135
155
138
163
140
165
141
146
141
322
143
219
143
144
144
169
149
174
153
209
156
190
158
183
164
188
165
190
167
297
168
193
168
218
170
221
172
197
173
198
174
298
174
224
175
275
178
303
179
329
182
333
185
210
188
288
193
268
194
344
195
221
195
220
197
297
200
255
200
225
202
253
202
279
204
254
205
230
205
255
206
281
206
235
207
281
209
234
210
235
215
240
217
266
218
243
220
245
221
296
223
348
224
249
225
300
227
304
230
255
230
235
234
259
235
260
240
270
243
268
244
319
248
348
249
274
252
301
259
333
260
285
262
344
262
289
266
296
268
293
273
298
275
381
276
281
276
305
284
333
284
309
285
310
288
289
289
314
289
313
293
343
343
368
346
371
367
387
368
393
399
424
415
416
304
0
125
0
50
0
26
0
329
0
48
1
73
1
248
1
371
1
121
1
96
1
149
1
195
1
296
1
330
2
45
2
80
2
100
2
245
2
290
2
184
3
169
3
94
3
124
3
194
3
53
4
17
4
6
4
49
4
55
4
11
4
2
4
0
4
74
4
88
4
22
4
47
4
114
4
4
4
122
4
24
4
7
4
20
4
64
4
109
4
12
4
8
4
5
4
15
4
38
4
66
4
18
4
71
4
9
4
16
4
21
4
23
4
94
4
68
4
33
4
83
4
29
4
14
4
1
4
3
4
13
4
93
4
43
4
72
4
34
4
10
4
58
4
CELL_DATA 267
VECTORS force double
6.11654 17.4989 -98.3695 
1.95756 -0.102818 -10.2971 
-0.53581 -8.89341 -49.4148 
9.04346 -97.7358 -335.159 
-0.870409 -33.5536 -86.5879 
-0.409219 -3.77271 -7.26453 
-0.588625 29.9937 6.72839 
217.962 119.3 329.021 
114.909 161.127 138.447 
8.39459 -49.8254 -125.338 
2.80593 1.45402 -5.76229 
21.6443 11.567 -208.22 
-40.6275 79.8671 14.3558 
-7.93887 17.2767 -7.18871 
0.746661 -26.4275 -63.1058 
-17.8495 200.374 -334.921 
-7.26152 4.01629 18.64 
-15.7016 2.1333 32.2835 
39.1051 332.707 -476.742 
467.876 -354.095 -615.933 
322.45 103.948 -668.915 
46.6625 68.6083 -96.7288 
59.1966 -82.1067 -19.9624 
-20.7679 31.6807 -199.995 
-6.00617 3.46636 -2.75885 
-513.644 -132.356 -47.0404 
-556.285 -5.38557 442.831 
3.89892 11.9471 -75.5076 
-0.00432208 2.7657 -11.1757 
-16.1481 10.6471 -3.73063 
-2.58378 7.79101 -35.2571 
-1.12165 0.610287 0.359097 
-3.43419 2.49411 -12.2387 
-77.9579 42.3816 -29.8431 
-54.6175 20.8685 0.268773 
-31.567 44.28 -18.2516 
12.4181 -52.1423 -119.544 
-62.4366 114.445 174.995 
2.13522 -3.57648 -21.0453 
-5.55164 124.227 29.806 
34.6043 -134.428 323.649 
4.30064 -1.22375 -19.4172 
23.5392 23.8372 -7.77713 
-105.552 -108.144 -303.35 
-7.76415 18.249 -71.3158 
-169.621 -36.0511 402.809 
-25.8188 8.72291 -173.305 
408.013 -41.2484 -450.947 
-56.2153 -107.079 -173.702 
133.093 -183.757 -524.944 
-14.6627 9.52069 -76.1441 
63.2547 85.7303 19.2926 
0.105346 1.29459 40.6358 
-1.87662 -6.44132 -25.5088 
-18.1968 -3.59593 -87.7757 
-258.952 11.7876 316.991 
89.0975 -32.3803 -180.387 
175.596 94.1402 -80.4471 
-0.734508 0.565746 1.00066 
2.3237 0.427916 5.58615 
-270.104 -71.3912 53.2346 
-2.05061 -3.83011 -63.1091 
20.2345 -34.3274 -21.0085 
-7.21881 0.814194 -18.4725 
58.9822 3.77043 -154.997 
-134.924 157.205 -160.789 
-13.0909 4.37868 -67.3402 
6.681 4.14177 -6.55017 
-0.361148 29.001 32.4694 
-27.0664 -51.7596 -110.742 
10.7591 9.18448 -37.5654 
283.313 -122.493 -498.481 
3.69914 -0.338319 0.61665 
-1.89136 -3.58074 -34.9611 
2.54913 -114.667 53.9563 
0.717441 11.7111 9.93175 
-0.520335 -19.8255 -17.8108 
173.523 -122.954 653.961 
183.114 -156.879 909.613 
-14.6855 38.8665 -40.9528 
6.38176 11.6275 15.3965 
-1.0951 -7.18829 1.88042 
0.0823588 3.28172 -11.9678 
108.162 82.303 241.578 
72.2569 138.464 393.068 
-26.1581 1.78212 0.0553504 
4.8265 22.0715 -11.2015 
-20.8566 -32.4064 -20.6048 
-3.01071 -42.3644 -51.2852 
7.20998 -5.40451 -8.66857 
17.8592 -36.4149 -17.2707 
1.6615 -6.87944 -12.2329 
-2.58336 6.87266 1.68217 
3.11549 -0.0606186 -6.74477 
1.8019 -12.174 -19.3126 
138.863 -77.6581 -1057.04 
1.94646 5.12606 -32.3046 
-30.66 3.95343 -36.9918 
-0.835606 0.0770036 -2.57002 
31.1338 68.8254 81.8924 
-97.0556 20.37 65.509 
11.8431 26.3133 -94.1475 
-27.7165 -42.5051 -58.46 
-7.30798 91.7055 91.9837 
1.90457 -13.5452 -21.0477 
-53.9913 18.0747 -205.698 
10.837 18.6793 -61.9943 
-37.9478 -1.19003 -14.0648 
49.7257 -44.7156 -45.7645 
-1.77476 -9.97036 -11.2147 
199.767 70.9899 -327.997 
-4.42428 1.23194 8.23526 
1.80248 -1.16768 -2.16651 
-9.66977 13.9979 -45.2367 
-1.26719 -0.617902 25.634 
-10.0016 -20.8044 -2.30237 
-7.83489 13.9918 -32.834 
-10.4363 -14.9158 -27.0108 
-6.19407 54.3053 150.678 
-63.3846 -28.6828 19.9154 
24.9313 14.7244 -24.5261 
-19.7377 12.9261 -367.918 
-19.6789 -26.089 13.4644 
45.9809 -201.324 391.162 
14.4433 -229.264 686.901 
-2.16286 12.499 -64.1466 
3.63063 10.9081 18.0054 
2.30317 2.16458 -4.20241 
-1.16716 21.6854 9.1334 
7.98707 -9.19501 -20.2677 
-3.32847 -4.58835 -28.9841 
-1.26043 9.06538 -15.1998 
-5.99268 -3.18788 -1.67793 
-2.62052 -1.9071 12.2823 
11.6505 -19.6573 -43.6396 
11.9881 -4.03549 -34.4906 
-22.7906 162.63 -185.254 
80.14 -120.774 -143.503 
9.77564 -81.0471 -33.493 
44.774 64.468 -111.61 
15.276 49.4794 -44.1736 
-18.5656 -35.6292 165.727 
8.25254 -14.8889 -83.4701 
35.5824 100.914 33.8111 
1.8174 0.959512 11.2085 
35.0623 -7.43216 -67.6153 
-30.1885 20.1609 -9.10279 
45.4568 16.3188 -151.701 
-0.0953641 -8.56703 -24.0945 
-0.716419 30.497 37.0548 
3.37322 3.33505 10.1725 
10.0734 1.66576 -19.7686 
24.8244 -24.2928 -79.0213 
-15.4339 -7.40093 14.0582 
6.65966 -6.14101 -13.1934 
210.49 -68.197 -615.462 
40.841 100.005 -51.268 
-19.5607 -14.937 -5.71208 
57.6609 -2.95281 -181.68 
2.07126 -1.76963 -7.28322 
11.5089 -49.7044 -44.993 
3.26992 -1.2318 2.41559 
18.873 29.6154 -15.6371 
-43.5188 -13.2457 -13.2119 
-1.22606 -3.87028 -23.9277 
-16.9573 -0.400837 -52.6002 
-30.7877 -16.1066 30.7919 
-44.2525 33.2541 355.826 
5.41113 1.03559 -6.19393 
-5.80061 -13.3645 27.4501 
-0.232416 -1.06599 -3.95769 
0.556772 -0.765527 1.30672 
1.52533 -3.08174 -17.9627 
-5.61684 0.871506 -25.9509 
-35.0132 -9.64943 -2.04355 
29.9299 16.1279 -24.9377 
4.88415 -4.42814 1.38484 
-14.9013 115.493 -137.968 
-0.490183 -10.4879 15.2425 
-5.16778 -4.48758 -12.5077 
-1.85717 -1.99074 3.95661 
1.51944 0.733986 -0.154594 
-5.04249 2.76945 13.2605 
6.71821 2.2198 -11.7062 
-2.62544 1.24016 -11.4043 
-3.55736 -7.13093 -9.13387 
4.14084 -3.16461 -8.31145 
11.2515 11.4655 -15.2127 
-3.65911 14.6244 -64.1046 
-0.608097 -0.885107 -18.3043 
-129.244 -23.6971 64.1944 
-3.02778 2.75482 5.43533 
1.97929 -1.23821 -6.38258 
-4.50578 6.23284 -1.39385 
-3492.29 -2169.59 32.5193 
3.22549 -1.40947 6.38572 
10.8412 -3.8198 -2.69266 
14.7918 -5.70068 9.73723 
14.1921 -10.4382 12.223 
0.986967 -4.08785 36.0791 
280.082 172.325 -152.628 
-45.3613 73.3201 -176.341 
-6.23539 -1.68262 12.5691 
-121.42 -59.5917 427.848 
-7.5976 0.261161 7.75942 
-7.27987 -1.18835 7.16393 
-18.4874 14.4157 43.0051 
-80.239 -45.3293 -36.8608 
-29.9624 -18.9928 -32.9763 
-0.596945 1.07226 4.56052 
42.5597 133.953 -43.5813 
-14.1443 28.2913 3.42713 
-15.3592 52.889 -6.45353 
36.5509 111.745 -33.7129 
-34.6627 -69.2435 -47.4989 
-0.257171 -4.54172 8.17615 
5.24485 -3.12857 1.44006 
2.12716 -21.3669 -16.3297 
9.67714 -38.5485 19.9148 
-28.0497 -43.4026 14.2031 
13.721 17.7731 31.9255 
7.76589 0.75205 78.8003 
-2.70363e-07 -1.95052e-08 13.6117 
96.6063 64.2157 -63.947 
-1.94114 -11.6377 95.8352 
-2.83172 -1.65631 19.3162 
-1.86306 -0.322635 23.2634 
-5.11219 -17.1064 112.511 
-119.71 262.728 419.664 
1.64447 1.03953 50.2663 
-3.70557 -0.702155 16.5199 
-2.47132e-15 7.54477e-15 13.6117 
0.685835 1.2981 13.4252 
-53.8589 -59.3313 -67.2628 
-9.15023e-15 -8.57153e-15 13.6117 
-141.828 -139.018 301.111 
0.788578 6.70652 22.3902 
-23.0866 -18.4535 109.675 
0.262191 2.79395 17.782 
-4.10259 -0.786312 48.3218 
-0.0140449 -0.0159159 13.6436 
1.90348 -10.4885 0.323914 
-0.256094 -1.5066 12.7432 
-1.28922 32.8765 96.8581 
-12.8875 -134.647 227.438 
-2.4697 -0.112693 12.9446 
2.79169 14.177 16.2245 
28.9133 -7.78172 52.7043 
-106.637 -53.5443 612.711 
16.0028 2.66 -5.38628 
-20.6018 -19.8919 212.469 
129.347 136.157 300.949 
10.6464 3.41589 57.7497 
-17.1149 -13.3974 66.6379 
4.75997 -1.53952 24.6318 
-11.0206 -1.32806 27.1677 
9.14923e-06 0.00115216 13.6116 
-5.36164 -1.76541 18.9832 
-1.00129e-15 -7.24494e-16 13.6117 
-0.359628 18.0859 64.4769 
20.9209 -53.0549 36.3071 
93.5565 293.047 857.01 
38.2368 3.08526 16.6708 
7.21189 0.383586 32.1286 
-1.54534 -16.7643 58.7073 
-16.1638 56.7875 150.936 
0.59742 28.8055 20.5534 
VECTORS moment double
0 0 0 
0 0 0 
0 0 0 
0 0 0 
0 0 0 
0 0 0 
0 0 0 
0 0 0 
0 0 0 
0 0 0 
0 0 0 
0 0 0 
0 0 0 
0 0 0 
0 0 0 
0 0 0 
0 0 0 
0 0 0 
0 0 0 
0 0 0 
0 0 0 
0 0 0 
0 0 0 
0 0 0 
0 0 0 
0 0 0 
0 0 0 
0 0 0 
0 0 0 
0 0 0 
0 0 0 
0 0 0 
0 0 0 
0 0 0 
0 0 0 
0 0 0 
0 0 0 
0 0 0 
0 0 0 
0 0 0 
0 0 0 
0 0 0 
0 0 0 
0 0 0 
0 0 0 
0 0 0 
0 0 0 
0 0 0 
0 0 0 
0 0 0 
0 0 0 
0 0 0 
0 0 0 
0 0 0 
0 0 0 
0 0 0 
0 0 0 
0 0 0 
0 0 0 
0 0 0 
0 0 0 
0 0 0 
0 0 0 
0 0 0 
0 0 0 
0 0 0 
0 0 0 
0 0 0 
0 0 0 
0 0 0 
0 0 0 
0 0 0 
0 0 0 
0 0 0 
0 0 0 
0 0 0 
0 0 0 
0 0 0 
0 0 0 
0 0 0 
0 0 0 
0 0 0 
0 0 0 
0 0 0 
0 0 0 
0 0 0 
0 0 0 
0 0 0 
0 0 0 
0 0 0 
0 0 0 
0 0 0 
0 0 0 
0 0 0 
0 0 0 
0 0 0 
0 0 0 
0 0 0 
0 0 0 
0 0 0 
0 0 0 
0 0 0 
0 0 0 
0 0 0 
0 0 0 
0 0 0 
0 0 0 
0 0 0 
0 0 0 
0 0 0 
0 0 0 
0 0 0 
0 0 0 
0 0 0 
0 0 0 
0 0 0 
0 0 0 
0 0 0 
0 0 0 
0 0 0 
0 0 0 
0 0 0 
0 0 0 
0 0 0 
0 0 0 
0 0 0 
0 0 0 
0 0 0 
0 0 0 
0 0 0 
0 0 0 
0 0 0 
0 0 0 
0 0 0 
0 0 0 
0 0 0 
0 0 0 
0 0 0 
0 0 0 
0 0 0 
0 0 0 
0 0 0 
0 0 0 
0 0 0 
0 0 0 
0 0 0 
0 0 0 
0 0 0 
0 0 0 
0 0 0 
0 0 0 
0 0 0 
0 0 0 
0 0 0 
0 0 0 
0 0 0 
0 0 0 
0 0 0 
0 0 0 
0 0 0 
0 0 0 
0 0 0 
0 0 0 
0 0 0 
0 0 0 
0 0 0 
0 0 0 
0 0 0 
0 0 0 
0 0 0 
0 0 0 
0 0 0 
0 0 0 
0 0 0 
0 0 0 
0 0 0 
0 0 0 
0 0 0 
0 0 0 
0 0 0 
0 0 0 
0 0 0 
0 0 0 
0 0 0 
0 0 0 
0 0 0 
0 0 0 
0 0 0 
0 0 0 
0 0 0 
0 0 0 
0 0 0 
0 0 0 
0 0 0 
0 0 0 
0 0 0 
0 0 0 
0 0 0 
0 0 0 
0 0 0 
0 0 0 
0 0 0 
0 0 0 
0 0 0 
0 0 0 
0 0 0 
0 0 0 
0 0 0 
0 0 0 
0 0 0 
0 0 0 
0 0 0 
0 0 0 
0 0 0 
0 0 0 
0 0 0 
0 0 0 
0 0 0 
0 0 0 
0 0 0 
0 0 0 
0 0 0 
0 0 0 
0 0 0 
0 0 0 
0 0 0 
0 0 0 
0 0 0 
0 0 0 
0 0 0 
0 0 0 
0 0 0 
0 0 0 
0 0 0 
0 0 0 
0 0 0 
0 0 0 
0 0 0 
0 0 0 
0 0 0 
0 0 0 
0 0 0 
0 0 0 
0 0 0 
0 0 0 
0 0 0 
0 0 0 
0 0 0 
0 0 0 
0 0 0 
0 0 0 
0 0 0 
0 0 0 
0 0 0 
0 0 0 
0 0 0 
0 0 0 
0 0 0 
0 0 0 
0 0 0 
0 0 0 
0 0 0 
0 0 0 
0 0 0 
0 0 0 
0 0 0 
0 0 0 
SCALARS num_collisions int 1
LOOKUP_TABLE default
1 
1 
1 
1 
1 
1 
1 
1 
1 
1 
1 
1 
1 
1 
1 
1 
1 
1 
1 
1 
1 
1 
1 
1 
1 
1 
1 
1 
1 
1 
1 
1 
1 
1 
1 
1 
1 
1 
1 
1 
1 
1 
1 
1 
1 
1 
1 
1 
1 
1 
1 
1 
1 
1 
1 
1 
1 
1 
1 
1 
1 
1 
1 
1 
1 
1 
1 
1 
1 
1 
1 
1 
1 
1 
1 
1 
1 
1 
1 
1 
1 
1 
1 
1 
1 
1 
1 
1 
1 
1 
1 
1 
1 
1 
1 
1 
1 
1 
1 
1 
1 
1 
1 
1 
1 
1 
1 
1 
1 
1 
1 
1 
1 
1 
1 
1 
1 
1 
1 
1 
1 
1 
1 
1 
1 
1 
1 
1 
1 
1 
1 
1 
1 
1 
1 
1 
1 
1 
1 
1 
1 
1 
1 
1 
1 
1 
1 
1 
1 
1 
1 
1 
1 
1 
1 
1 
1 
1 
1 
1 
1 
1 
1 
1 
1 
1 
1 
1 
1 
1 
1 
1 
1 
1 
1 
1 
1 
1 
1 
1 
1 
1 
1 
1 
1 
1 
1 
1 
1 
1 
1 
1 