# vtk DataFile Version 2.0
Generated by NetDEM
ASCII 
DATASET POLYDATA
POINTS 404 double
-0.417 -0.405621 -0.462909 
-0.403732 -0.400274 -0.388421 
-0.403333 -0.203333 -0.450078 
-0.403333 -0.203333 -0.35015 
-0.411041 -0.00735916 -0.463998 
-0.411564 -0.00901604 -0.390528 
-0.405041 0.196883 -0.450078 
-0.40426 0.196912 -0.350151 
-0.402763 0.397237 -0.450079 
-0.402763 0.397237 -0.350151 
-0.265407 -0.432258 -0.459438 
-0.302423 -0.405205 -0.384853 
-0.203538 -0.203538 -0.450078 
-0.203538 -0.203538 -0.35015 
-0.203218 -0.00321788 -0.450078 
-0.203218 -0.00321788 -0.350149 
-0.174439 0.206212 -0.458346 
-0.19858 0.208931 -0.376942 
-0.24677 0.369116 -0.465053 
-0.156228 0.413412 -0.444605 
-0.0348553 -0.397089 -0.453045 
-0.0436712 -0.385931 -0.379639 
-0.00366947 -0.203669 -0.450078 
-0.00366947 -0.203669 -0.350149 
-0.00360232 -0.00360232 -0.450079 
-0.00360232 -0.00360232 -0.350151 
0.0338949 0.187764 -0.453267 
0.159185 0.210895 -0.464954 
0.189029 -0.398384 -0.464465 
0.187671 -0.397114 -0.39202 
0.174464 -0.212222 -0.464799 
0.190635 -0.202357 -0.388957 
0.173234 -0.00921547 -0.462235 
0.186563 -0.0127548 -0.38381 
0.159185 0.210895 -0.464954 
0.216853 0.190485 -0.378619 
0.200199 0.39799 -0.450076 
0.199275 0.397407 -0.350151 
0.396713 -0.403287 -0.450078 
0.396713 -0.403287 -0.350149 
0.39661 -0.20339 -0.450079 
0.39661 -0.20339 -0.35015 
0.396488 -0.00351175 -0.450078 
0.396488 -0.00351175 -0.35015 
0.396331 0.194567 -0.450076 
0.39653 0.193241 -0.350153 
-0.403732 -0.400274 -0.388421 
-0.402286 -0.403795 -0.315449 
-0.403333 -0.203333 -0.35015 
-0.403333 -0.203333 -0.250214 
-0.411564 -0.00901604 -0.390528 
-0.392753 -0.00216923 -0.311305 
-0.40426 0.196912 -0.350151 
-0.401103 0.19722 -0.250265 
-0.402763 0.397237 -0.350151 
-0.402763 0.397237 -0.250215 
-0.302423 -0.405205 -0.384853 
-0.402286 -0.403795 -0.315449 
-0.302423 -0.405205 -0.384853 
-0.240776 -0.39953 -0.312267 
-0.203538 -0.203538 -0.35015 
-0.203538 -0.203538 -0.250214 
-0.203218 -0.00321788 -0.350149 
-0.203218 -0.00321788 -0.250213 
-0.156228 0.413412 -0.444605 
-0.203245 0.449404 -0.381229 
-0.00366947 -0.203669 -0.350149 
-0.00366947 -0.203669 -0.250213 
-0.00360232 -0.00360232 -0.350151 
-0.00360232 -0.00360232 -0.250216 
0.049351 0.347285 -0.429017 
0.0331711 0.421175 -0.375158 
0.187671 -0.397114 -0.39202 
0.176004 -0.395687 -0.317995 
0.190635 -0.202357 -0.388957 
0.169333 -0.17942 -0.30649 
0.186563 -0.0127548 -0.38381 
0.188551 0.00340072 -0.309283 
0.199275 0.397407 -0.350151 
0.19607 0.396433 -0.250269 
0.396713 -0.403287 -0.350149 
0.396713 -0.403287 -0.250212 
0.39661 -0.20339 -0.35015 
0.39661 -0.20339 -0.250214 
0.396488 -0.00351175 -0.35015 
0.396488 -0.00351175 -0.250214 
0.39653 0.193241 -0.350153 
0.39669 0.195547 -0.250241 
0.389153 0.35762 -0.443037 
0.417234 0.294405 -0.365153 
-0.402286 -0.403795 -0.315449 
-0.410728 -0.405134 -0.240729 
-0.403333 -0.203333 -0.250214 
-0.403333 -0.203333 -0.15027 
-0.392753 -0.00216923 -0.311305 
-0.391875 0.00164184 -0.234656 
-0.401103 0.19722 -0.250265 
-0.402519 0.197132 -0.150331 
-0.402763 0.397237 -0.250215 
-0.402763 0.397237 -0.150272 
-0.203538 -0.203538 -0.250214 
-0.203538 -0.203538 -0.150271 
-0.203218 -0.00321788 -0.250213 
-0.203218 -0.00321788 -0.150269 
-0.19858 0.208931 -0.376942 
-0.206803 0.180476 -0.27065 
-0.203245 0.449404 -0.381229 
-0.217 0.431228 -0.293551 
-0.00366947 -0.203669 -0.250213 
-0.00366947 -0.203669 -0.150269 
-0.00360232 -0.00360232 -0.250216 
-0.00360232 -0.00360232 -0.150273 
0.176004 -0.395687 -0.317995 
0.201432 -0.397234 -0.229423 
0.169333 -0.17942 -0.30649 
0.185482 -0.20603 -0.223887 
0.188551 0.00340072 -0.309283 
0.192506 0.00361984 -0.235754 
0.19607 0.396433 -0.250269 
0.197013 0.397027 -0.150331 
0.396713 -0.403287 -0.250212 
0.396713 -0.403287 -0.150268 
0.39661 -0.20339 -0.250214 
0.39661 -0.20339 -0.150271 
0.396488 -0.00351175 -0.250214 
0.396488 -0.00351175 -0.150271 
0.39669 0.195547 -0.250241 
0.39646 0.196831 -0.150304 
-0.410728 -0.405134 -0.240729 
-0.408408 -0.408552 -0.155544 
-0.403333 -0.203333 -0.15027 
-0.403333 -0.203333 -0.0503189 
-0.391875 0.00164184 -0.234656 
-0.394296 -0.00566483 -0.152795 
-0.402519 0.197132 -0.150331 
-0.40352 0.196978 -0.0503843 
-0.402763 0.397237 -0.150272 
-0.402763 0.397237 -0.0503212 
-0.203538 -0.203538 -0.150271 
-0.203538 -0.203538 -0.0503195 
-0.203218 -0.00321788 -0.150269 
-0.203218 -0.00321788 -0.0503179 
-0.00366947 -0.203669 -0.150269 
-0.00366947 -0.203669 -0.0503174 
-0.00360232 -0.00360232 -0.150273 
-0.00360232 -0.00360232 -0.0503227 
0.0331711 0.421175 -0.375158 
-0.0346967 0.428775 -0.314661 
0.201432 -0.397234 -0.229423 
0.198534 -0.401451 -0.157917 
0.185482 -0.20603 -0.223887 
0.203025 -0.247588 -0.142246 
0.192506 0.00361984 -0.235754 
0.187206 0.00151824 -0.162737 
0.197013 0.397027 -0.150331 
0.19692 0.396911 -0.050378 
0.396713 -0.403287 -0.150268 
0.396713 -0.403287 -0.0503166 
0.39661 -0.20339 -0.150271 
0.39661 -0.20339 -0.0503202 
0.396488 -0.00351175 -0.150271 
0.396488 -0.00351175 -0.0503194 
0.39646 0.196831 -0.150304 
0.396511 0.196464 -0.0503513 
-0.408408 -0.408552 -0.155544 
-0.411779 -0.406105 -0.0794038 
-0.403333 -0.203333 -0.0503189 
-0.403333 -0.203333 0.0496402 
-0.394296 -0.00566483 -0.152795 
-0.419125 -0.00492765 -0.0813959 
-0.40352 0.196978 -0.0503843 
-0.402818 0.197044 0.0495728 
-0.402763 0.397237 -0.0503212 
-0.402763 0.397237 0.0496376 
-0.203538 -0.203538 -0.0503195 
-0.203538 -0.203538 0.0496395 
-0.203218 -0.00321788 -0.0503179 
-0.203218 -0.00321788 0.0496414 
-0.00366947 -0.203669 -0.0503174 
-0.00366947 -0.203669 0.049642 
-0.00360232 -0.00360232 -0.0503227 
-0.00360232 -0.00360232 0.0496359 
-0.0346967 0.428775 -0.314661 
-0.0059326 0.388014 -0.238411 
0.198534 -0.401451 -0.157917 
0.207751 -0.399558 -0.0787634 
0.203025 -0.247588 -0.142246 
0.195501 -0.216706 -0.0522649 
0.187206 0.00151824 -0.162737 
0.184696 -0.00105356 -0.085921 
0.19692 0.396911 -0.050378 
0.196906 0.396908 0.0495821 
0.396713 -0.403287 -0.0503166 
0.396713 -0.403287 0.0496429 
0.39661 -0.20339 -0.0503202 
0.39661 -0.20339 0.0496388 
0.396488 -0.00351175 -0.0503194 
0.396488 -0.00351175 0.0496397 
0.396511 0.196464 -0.0503513 
0.396509 0.196507 0.0496094 
-0.411779 -0.406105 -0.0794038 
-0.411557 -0.40362 0.000218401 
-0.403333 -0.203333 0.0496402 
-0.403333 -0.203333 0.149607 
-0.419125 -0.00492765 -0.0813959 
-0.409743 -0.00177563 0.0124538 
-0.402818 0.197044 0.0495728 
-0.402899 0.197064 0.14954 
-0.402763 0.397237 0.0496376 
-0.402763 0.397237 0.149604 
-0.203538 -0.203538 0.0496395 
-0.203538 -0.203538 0.149607 
-0.203218 -0.00321788 0.0496414 
-0.203218 -0.00321788 0.149609 
-0.00366947 -0.203669 0.049642 
-0.00366947 -0.203669 0.149609 
-0.00360232 -0.00360232 0.0496359 
-0.00360232 -0.00360232 0.149603 
-0.0059326 0.388014 -0.238411 
0.000916038 0.395068 -0.151697 
0.207751 -0.399558 -0.0787634 
0.187895 -0.409333 -0.00825764 
0.195501 -0.216706 -0.0522649 
0.196783 -0.199867 0.0273062 
0.184696 -0.00105356 -0.085921 
0.187197 -0.00422675 -0.0082146 
0.196906 0.396908 0.0495821 
0.196915 0.396915 0.14955 
0.396713 -0.403287 0.0496429 
0.396713 -0.403287 0.14961 
0.39661 -0.20339 0.0496388 
0.39661 -0.20339 0.149606 
0.396488 -0.00351175 0.0496397 
0.396488 -0.00351175 0.149607 
0.396509 0.196507 0.0496094 
0.396508 0.19651 0.149578 
-0.411557 -0.40362 0.000218401 
-0.408835 -0.403532 0.0804849 
-0.403333 -0.203333 0.149607 
-0.403333 -0.203333 0.249583 
-0.409743 -0.00177563 0.0124538 
-0.410464 -0.000158795 0.08401 
-0.402899 0.197064 0.14954 
-0.402981 0.197047 0.249516 
-0.402763 0.397237 0.149604 
-0.402763 0.397237 0.24958 
-0.203538 -0.203538 0.149607 
-0.203538 -0.203538 0.249582 
-0.203218 -0.00321788 0.149609 
-0.203218 -0.00321788 0.249584 
-0.0148089 -0.403999 -0.00144185 
-0.00426053 -0.405935 0.0919539 
-0.00366947 -0.203669 0.149609 
-0.00366947 -0.203669 0.249585 
-0.00360232 -0.00360232 0.149603 
-0.00360232 -0.00360232 0.249577 
0.000916038 0.395068 -0.151697 
-0.00147205 0.401687 -0.0657324 
0.187895 -0.409333 -0.00825764 
0.203213 -0.400845 0.0852056 
0.196783 -0.199867 0.0273062 
0.193705 -0.200993 0.116598 
0.187197 -0.00422675 -0.0082146 
0.191984 -0.00638143 0.0714815 
0.196915 0.396915 0.14955 
0.196913 0.396913 0.249526 
0.396713 -0.403287 0.14961 
0.396713 -0.403287 0.249586 
0.39661 -0.20339 0.149606 
0.39661 -0.20339 0.249581 
0.396488 -0.00351175 0.149607 
0.396488 -0.00351175 0.249582 
0.396508 0.19651 0.149578 
0.396508 0.196507 0.249554 
-0.408835 -0.403532 0.0804849 
-0.410391 -0.404423 0.155332 
-0.403333 -0.203333 0.249583 
-0.403333 -0.203333 0.349566 
-0.410464 -0.000158795 0.08401 
-0.406261 -0.00505686 0.159989 
-0.402981 0.197047 0.249516 
-0.402946 0.197049 0.349499 
-0.402763 0.397237 0.24958 
-0.402763 0.397237 0.349563 
-0.203538 -0.203538 0.249582 
-0.203538 -0.203538 0.349565 
-0.203218 -0.00321788 0.249584 
-0.203218 -0.00321788 0.349568 
-0.00366947 -0.203669 0.249585 
-0.00366947 -0.203669 0.349568 
-0.00360232 -0.00360232 0.249577 
-0.00360232 -0.00360232 0.349561 
-0.00147205 0.401687 -0.0657324 
-0.0041957 0.39672 0.0283528 
0.203213 -0.400845 0.0852056 
0.192831 -0.403249 0.158202 
0.193705 -0.200993 0.116598 
0.195171 -0.204263 0.20359 
0.191984 -0.00638143 0.0714815 
0.190715 -0.00603482 0.144356 
0.194526 0.191203 -0.0236652 
0.192904 0.197227 0.066848 
0.196913 0.396913 0.249526 
0.196913 0.396913 0.34951 
0.396713 -0.403287 0.249586 
0.396713 -0.403287 0.34957 
0.39661 -0.20339 0.249581 
0.39661 -0.20339 0.349564 
0.396488 -0.00351175 0.249582 
0.396488 -0.00351175 0.349565 
0.396508 0.196507 0.249554 
0.396508 0.196508 0.349538 
-0.410391 -0.404423 0.155332 
-0.403359 -0.40373 0.24283 
-0.403333 -0.203333 0.349566 
-0.403333 -0.203333 0.449558 
-0.406261 -0.00505686 0.159989 
-0.403772 -0.00350589 0.246156 
-0.402946 0.197049 0.349499 
-0.402949 0.19705 0.449491 
-0.402763 0.397237 0.349563 
-0.402763 0.397237 0.449555 
-0.203538 -0.203538 0.349565 
-0.203538 -0.203538 0.449557 
-0.203218 -0.00321788 0.349568 
-0.203218 -0.00321788 0.449559 
-0.00366947 -0.203669 0.349568 
-0.00366947 -0.203669 0.44956 
-0.00360232 -0.00360232 0.349561 
-0.00360232 -0.00360232 0.449552 
0.196913 0.396913 0.34951 
0.196913 0.396913 0.449501 
0.396713 -0.403287 0.34957 
0.396713 -0.403287 0.449561 
0.39661 -0.20339 0.349564 
0.39661 -0.20339 0.449556 
0.396488 -0.00351175 0.349565 
0.396488 -0.00351175 0.449557 
0.396508 0.196508 0.349538 
0.396508 0.196508 0.44953 
-0.203245 0.449404 -0.381229 
-0.185551 0.500003 -0.3885 
-0.402763 0.397237 -0.450079 
-0.402763 0.397237 -0.5 
0.173234 -0.00921547 -0.462235 
0.205676 -0.00247926 -0.500025 
-0.411041 -0.00735916 -0.463998 
-0.395042 -0.00932095 -0.50003 
0.389153 0.35762 -0.443037 
0.346554 0.336251 -0.500009 
0.00225521 0.252966 -0.44042 
-0.0282344 0.21504 -0.500002 
0.39661 -0.20339 -0.450079 
0.39661 -0.20339 -0.5 
-0.417 -0.405621 -0.462909 
-0.404409 -0.401144 -0.50004 
0.396331 0.194567 -0.450076 
0.396332 0.194573 -0.5 
0.189029 -0.398384 -0.464465 
0.194264 -0.395588 -0.500036 
-0.174439 0.206212 -0.458346 
-0.19514 0.214002 -0.500022 
0.174464 -0.212222 -0.464799 
0.199671 -0.186144 -0.500019 
-0.24677 0.369116 -0.465053 
-0.25566 0.36787 -0.500008 
-0.265407 -0.432258 -0.459438 
-0.260748 -0.419196 -0.500015 
0.396488 -0.00351175 -0.450078 
0.396488 -0.00351175 -0.5 
-0.403333 -0.203333 -0.450078 
-0.403333 -0.203333 -0.5 
-0.405041 0.196883 -0.450078 
-0.405037 0.196883 -0.5 
-0.302144 0.160782 -0.464925 
-0.310632 0.160221 -0.500003 
-0.203538 -0.203538 -0.450078 
-0.203538 -0.203538 -0.5 
-0.203218 -0.00321788 -0.450078 
-0.203218 -0.00321788 -0.5 
-0.00366947 -0.203669 -0.450078 
-0.00366947 -0.203669 -0.5 
-0.00360232 -0.00360232 -0.450079 
-0.00360232 -0.00360232 -0.5 
-0.182561 -0.383257 -0.444994 
-0.163795 -0.413353 -0.500001 
0.396713 -0.403287 -0.450078 
0.396713 -0.403287 -0.5 
0.369796 0.439938 -0.465038 
0.376143 0.446262 -0.500003 
-0.156228 0.413412 -0.444605 
-0.137142 0.406581 -0.500011 
0.0338949 0.187764 -0.453267 
0.0261034 0.186974 -0.500003 
0.159185 0.210895 -0.464954 
0.162969 0.218623 -0.500006 
0.20048 0.112235 -0.454714 
0.220036 0.135414 -0.500003 
-0.0348553 -0.397089 -0.453045 
-0.00482985 -0.387913 -0.500005 
-0.0367294 0.392683 -0.464719 
0.00525734 0.390078 -0.500006 
0.200199 0.39799 -0.450076 
0.200189 0.397987 -0.5 
LINES 202 606
2 0 1
2 2 3
2 4 5
2 6 7
2 8 9
2 10 11
2 12 13
2 14 15
2 16 17
2 18 19
2 20 21
2 22 23
2 24 25
2 26 27
2 28 29
2 30 31
2 32 33
2 34 35
2 36 37
2 38 39
2 40 41
2 42 43
2 44 45
2 46 47
2 48 49
2 50 51
2 52 53
2 54 55
2 56 57
2 58 59
2 60 61
2 62 63
2 64 65
2 66 67
2 68 69
2 70 71
2 72 73
2 74 75
2 76 77
2 78 79
2 80 81
2 82 83
2 84 85
2 86 87
2 88 89
2 90 91
2 92 93
2 94 95
2 96 97
2 98 99
2 100 101
2 102 103
2 104 105
2 106 107
2 108 109
2 110 111
2 112 113
2 114 115
2 116 117
2 118 119
2 120 121
2 122 123
2 124 125
2 126 127
2 128 129
2 130 131
2 132 133
2 134 135
2 136 137
2 138 139
2 140 141
2 142 143
2 144 145
2 146 147
2 148 149
2 150 151
2 152 153
2 154 155
2 156 157
2 158 159
2 160 161
2 162 163
2 164 165
2 166 167
2 168 169
2 170 171
2 172 173
2 174 175
2 176 177
2 178 179
2 180 181
2 182 183
2 184 185
2 186 187
2 188 189
2 190 191
2 192 193
2 194 195
2 196 197
2 198 199
2 200 201
2 202 203
2 204 205
2 206 207
2 208 209
2 210 211
2 212 213
2 214 215
2 216 217
2 218 219
2 220 221
2 222 223
2 224 225
2 226 227
2 228 229
2 230 231
2 232 233
2 234 235
2 236 237
2 238 239
2 240 241
2 242 243
2 244 245
2 246 247
2 248 249
2 250 251
2 252 253
2 254 255
2 256 257
2 258 259
2 260 261
2 262 263
2 264 265
2 266 267
2 268 269
2 270 271
2 272 273
2 274 275
2 276 277
2 278 279
2 280 281
2 282 283
2 284 285
2 286 287
2 288 289
2 290 291
2 292 293
2 294 295
2 296 297
2 298 299
2 300 301
2 302 303
2 304 305
2 306 307
2 308 309
2 310 311
2 312 313
2 314 315
2 316 317
2 318 319
2 320 321
2 322 323
2 324 325
2 326 327
2 328 329
2 330 331
2 332 333
2 334 335
2 336 337
2 338 339
2 340 341
2 342 343
2 344 345
2 346 347
2 348 349
2 350 351
2 352 353
2 354 355
2 356 357
2 358 359
2 360 361
2 362 363
2 364 365
2 366 367
2 368 369
2 370 371
2 372 373
2 374 375
2 376 377
2 378 379
2 380 381
2 382 383
2 384 385
2 386 387
2 388 389
2 390 391
2 392 393
2 394 395
2 396 397
2 398 399
2 400 401
2 402 403
POINT_DATA 404
SCALARS id int 1
LOOKUP_TABLE default
0
25
1
26
2
27
3
28
4
29
5
30
6
31
7
32
8
58
9
34
10
35
11
36
12
37
13
18
15
40
16
41
17
42
18
93
19
44
20
45
21
46
22
47
23
48
25
50
26
51
27
52
28
53
29
54
30
50
30
105
31
56
32
57
34
59
36
61
37
62
39
89
40
65
41
66
42
67
44
69
45
70
46
71
47
72
48
73
49
74
50
75
51
76
52
77
53
78
54
79
56
81
57
82
58
108
59
84
61
86
62
87
65
90
66
91
67
92
69
94
70
95
71
96
72
97
73
98
75
100
76
101
77
102
78
103
79
104
81
106
82
107
86
111
87
112
89
114
90
115
91
116
92
117
94
119
95
120
96
121
97
122
98
123
100
125
101
126
102
127
103
128
104
129
106
131
107
132
111
136
112
137
114
139
115
140
116
141
117
142
119
144
120
145
121
146
122
147
123
148
125
150
126
151
127
152
128
153
129
154
131
156
132
157
136
161
137
162
139
164
140
165
141
166
142
167
144
169
145
170
146
171
147
172
148
173
150
175
151
176
152
177
153
178
154
179
156
181
157
182
160
185
161
186
162
187
164
189
165
190
166
191
167
192
169
194
170
195
171
196
172
197
173
198
175
200
176
201
177
202
178
203
179
204
181
206
182
207
186
211
187
212
189
214
190
215
191
216
192
217
193
218
194
219
195
220
196
221
197
222
198
223
200
225
201
226
202
227
203
228
204
229
206
231
207
232
211
236
212
237
219
244
220
245
221
246
222
247
223
248
59
3
4
4
17
4
2
4
49
4
38
4
21
4
0
4
23
4
15
4
8
4
16
4
9
4
5
4
22
4
1
4
3
4
33
4
6
4
7
4
11
4
12
4
55
4
20
4
24
4
34
4
13
4
18
4
43
4
10
4
14
4
19
4
CELL_DATA 202
VECTORS force double
-22.0793 3.69042 -160.174 
0 0 -142.035 
-2.16239 -2.55955 -111.707 
-1.68113 -0.119118 -140.808 
0 0 -143.116 
9.20236 1.08676 -30.901 
0 0 -142.279 
0 0 -141.699 
-4.90525 41.4366 -173.578 
-18.485 -15.8368 -15.7079 
4.22647 0.140006 -10.4686 
0 0 -141.406 
0 0 -143.674 
-10.7585 -2.92308 -2.16699 
-2.81561 0.61712 -117.907 
13.0388 4.98167 -80.3849 
3.25621 1.35177 -59.3863 
-5.3666 1.58155 -6.89433 
1.75517 0.791404 -138.896 
0 0 -141.078 
0 0 -142.623 
0 0 -142.234 
-0.18074 0.451367 -136.571 
-16.9666 5.21541 -155.079 
0 0 -127.538 
-1.09959 -1.31993 -104.029 
-2.37605 -0.230296 -125.789 
0 0 -128.544 
31.4272 -0.133687 -9.35919 
-12.2784 -2.29032 -5.41222 
0 0 -127.773 
0 0 -127.188 
-0.626365 -14.7889 -18.0724 
0 0 -126.927 
0 0 -129.099 
7.16489 -7.40228 -4.64188 
-2.73618 1.48669 -107.651 
1.0487 5.8255 -67.8736 
3.77541 2.26908 -90.9838 
2.55349 0.789005 -124.483 
0 0 -126.609 
0 0 -128.084 
0 0 -127.729 
-0.174863 -1.55017 -122.217 
-3.75782 -1.12216 -6.96681 
13.2544 -1.14245 -183.482 
0 0 -112.571 
3.29242 2.85724 -98.2142 
0.334763 0.00841084 -111.014 
0 0 -113.486 
0 0 -112.791 
0 0 -112.222 
10.5866 2.77214 -96.822 
-0.675294 -0.73388 0.589535 
0 0 -111.993 
0 0 -114.018 
-4.70473 2.37307 -96.5501 
-6.27717 8.58689 -56.5868 
1.35209 2.1509 -51.8329 
0.298616 -0.13365 -109.894 
0 0 -111.693 
0 0 -113.065 
0 0 -112.749 
0.134019 -1.54937 -107.9 
1.00156 -16.4742 -211.301 
0 0 -97.1952 
5.30657 2.0862 -95.2107 
1.02246 0.117842 -95.8716 
0 0 -98.0079 
0 0 -97.3921 
0 0 -96.863 
0 0 -96.6625 
0 0 -98.4961 
9.31102 3.73975 -37.5879 
2.08124 1.43654 -85.2603 
-4.16137 6.79581 -42.0298 
3.97089 1.67165 -49.491 
-0.366666 -0.131204 -94.9548 
0 0 -96.3903 
0 0 -97.6308 
0 0 -97.3542 
0.0417703 0.0574001 -93.3131 
-5.13189 -16.3009 -223.873 
0 0 -81.4815 
8.37141 -8.3365 -86.4089 
-0.235311 -0.00988453 -80.407 
0 0 -82.1795 
0 0 -81.6511 
0 0 -81.1807 
0 0 -81.0089 
0 0 -82.6089 
7.53664 9.88974 -46.7725 
4.0446 -0.0913006 -73.8816 
1.46931 3.57564 -30.7691 
3.74607 2.33595 -36.1888 
0.106271 0.0580394 -79.6798 
0 0 -80.7709 
0 0 -81.8525 
0 0 -81.618 
-0.0159541 0.0779425 -78.4055 
0.1292 -7.70906 -217.531 
0 0 -65.4961 
13.5011 -7.69317 -65.4331 
-0.110824 -0.0204734 -64.6717 
0 0 -66.068 
0 0 -65.6351 
0 0 -65.2387 
0 0 -65.0975 
0 0 -66.4265 
-13.9639 7.70124 -40.8077 
-0.126473 2.16947 -57.4459 
0.268259 -4.65008 -18.8199 
3.84855 0.73857 -24.5807 
-0.0141521 -0.00823139 -64.1118 
0 0 -64.8997 
0 0 -65.7976 
0 0 -65.6077 
0.00207177 -0.0210049 -63.1795 
11.3913 15.6782 -183.461 
0 0 -49.2999 
0.357351 5.36776 -35.8471 
0.0622217 0.00317598 -48.7011 
0 0 -49.7363 
0 0 -49.4059 
0 0 -49.0963 
0.268218 -0.0767639 3.14005 
0 0 -48.9881 
0 0 -50.0142 
-4.97294 -7.29651 -30.7232 
2.17389 3.16477 -27.7136 
-0.465938 -2.73713 -6.23371 
3.62443 1.88048 -8.50773 
0.000315171 8.98623e-05 -48.3013 
0 0 -48.8353 
0 0 -49.5283 
0 0 -49.3848 
-4.31634e-05 0.001808 -47.6664 
13.2082 11.9406 -133.876 
0 0 -32.9499 
-2.26246 2.1064 -9.93797 
-0.00380326 0.00182151 -32.5601 
0 0 -33.2441 
0 0 -33.0213 
0 0 -32.8087 
0 0 -32.7354 
0 0 -33.4338 
9.62919 2.30595 -18.2446 
0.7822 -0.95419 2.50133 
0.0679109 0.510824 -0.404838 
0.498041 0.685616 4.38232 
0.205886 -0.0185151 0.27527 
0.000356471 0.00029429 -32.3052 
0 0 -32.6315 
0 0 -33.103 
0 0 -33.0069 
-4.05529e-05 7.14483e-05 -31.9179 
21.3846 -0.169486 -37.1726 
0 0 -16.4996 
1.81541 -0.491819 3.87859 
-0.00281481 -0.000447082 -16.3075 
0 0 -16.6476 
0 0 -16.5355 
0 0 -16.4273 
0 0 -16.3903 
0 0 -16.7438 
-0.000115804 -9.30904e-05 -16.184 
0 0 -16.3377 
0 0 -16.5763 
0 0 -16.5282 
1.44415e-05 -7.62943e-05 -16.0023 
-0.285671 -13.0116 -6.78293 
0 0 157.193 
7.94906 1.05537 121.302 
4.03741 1.17935 124.402 
12.255 3.82089 21.79 
3.67545 4.59248 9.63528 
0 0 156.678 
22.7245 -2.36287 174.029 
0.117011 -1.1005 150.644 
3.37306 -1.05936 130.471 
-11.241 -10.1064 177.539 
-19.4626 -6.20317 91.1838 
21.712 12.8166 32.5835 
-2.65515 -1.55264 52.411 
0 0 156.266 
0 0 156.064 
0.0649909 -0.0205149 155.062 
1.74049 0.290312 13.1505 
0 0 156.312 
0 0 155.747 
0 0 155.428 
0 0 157.742 
0.440072 -1.29519 -0.475093 
0 0 155.097 
-1.21502 -1.37772 13.2285 
-14.0714 0.087481 14.8756 
11.4463 3.06425 17.0179 
-3.82646 -5.17131 17.3476 
-3.14633 -3.81288 10.7642 
-6.45518 -2.65144 20.146 
0.431004 1.67711 1.82872 
-0.165723 -0.240057 152.95 
VECTORS moment double
0 0 0 
0 0 0 
0 0 0 
0 0 0 
0 0 0 
0 0 0 
0 0 0 
0 0 0 
0 0 0 
0 0 0 
0 0 0 
0 0 0 
0 0 0 
0 0 0 
0 0 0 
0 0 0 
0 0 0 
0 0 0 
0 0 0 
0 0 0 
0 0 0 
0 0 0 
0 0 0 
0 0 0 
0 0 0 
0 0 0 
0 0 0 
0 0 0 
0 0 0 
0 0 0 
0 0 0 
0 0 0 
0 0 0 
0 0 0 
0 0 0 
0 0 0 
0 0 0 
0 0 0 
0 0 0 
0 0 0 
0 0 0 
0 0 0 
0 0 0 
0 0 0 
0 0 0 
0 0 0 
0 0 0 
0 0 0 
0 0 0 
0 0 0 
0 0 0 
0 0 0 
0 0 0 
0 0 0 
0 0 0 
0 0 0 
0 0 0 
0 0 0 
0 0 0 
0 0 0 
0 0 0 
0 0 0 
0 0 0 
0 0 0 
0 0 0 
0 0 0 
0 0 0 
0 0 0 
0 0 0 
0 0 0 
0 0 0 
0 0 0 
0 0 0 
0 0 0 
0 0 0 
0 0 0 
0 0 0 
0 0 0 
0 0 0 
0 0 0 
0 0 0 
0 0 0 
0 0 0 
0 0 0 
0 0 0 
0 0 0 
0 0 0 
0 0 0 
0 0 0 
0 0 0 
0 0 0 
0 0 0 
0 0 0 
0 0 0 
0 0 0 
0 0 0 
0 0 0 
0 0 0 
0 0 0 
0 0 0 
0 0 0 
0 0 0 
0 0 0 
0 0 0 
0 0 0 
0 0 0 
0 0 0 
0 0 0 
0 0 0 
0 0 0 
0 0 0 
0 0 0 
0 0 0 
0 0 0 
0 0 0 
0 0 0 
0 0 0 
0 0 0 
0 0 0 
0 0 0 
0 0 0 
0 0 0 
0 0 0 
0 0 0 
0 0 0 
0 0 0 
0 0 0 
0 0 0 
0 0 0 
0 0 0 
0 0 0 
0 0 0 
0 0 0 
0 0 0 
0 0 0 
0 0 0 
0 0 0 
0 0 0 
0 0 0 
0 0 0 
0 0 0 
0 0 0 
0 0 0 
0 0 0 
0 0 0 
0 0 0 
0 0 0 
0 0 0 
0 0 0 
0 0 0 
0 0 0 
0 0 0 
0 0 0 
0 0 0 
0 0 0 
0 0 0 
0 0 0 
0 0 0 
0 0 0 
0 0 0 
0 0 0 
0 0 0 
0 0 0 
0 0 0 
0 0 0 
0 0 0 
0 0 0 
0 0 0 
0 0 0 
0 0 0 
0 0 0 
0 0 0 
0 0 0 
0 0 0 
0 0 0 
0 0 0 
0 0 0 
0 0 0 
0 0 0 
0 0 0 
0 0 0 
0 0 0 
0 0 0 
0 0 0 
0 0 0 
0 0 0 
0 0 0 
0 0 0 
0 0 0 
0 0 0 
0 0 0 
0 0 0 
0 0 0 
0 0 0 
0 0 0 
0 0 0 
0 0 0 
0 0 0 
0 0 0 
0 0 0 
0 0 0 
0 0 0 
SCALARS num_collisions int 1
LOOKUP_TABLE default
1 
1 
1 
1 
1 
1 
1 
1 
1 
1 
1 
1 
1 
1 
1 
1 
1 
1 
1 
1 
1 
1 
1 
1 
1 
1 
1 
1 
1 
1 
1 
1 
1 
1 
1 
1 
1 
1 
1 
1 
1 
1 
1 
1 
1 
1 
1 
1 
1 
1 
1 
1 
1 
1 
1 
1 
1 
1 
1 
1 
1 
1 
1 
1 
1 
1 
1 
1 
1 
1 
1 
1 
1 
1 
1 
1 
1 
1 
1 
1 
1 
1 
1 
1 
1 
1 
1 
1 
1 
1 
1 
1 
1 
1 
1 
1 
1 
1 
1 
1 
1 
1 
1 
1 
1 
1 
1 
1 
1 
1 
1 
1 
1 
1 
1 
1 
1 
1 
1 
1 
1 
1 
1 
1 
1 
1 
1 
1 
1 
1 
1 
1 
1 
1 
1 
1 
1 
1 
1 
1 
1 
1 
1 
1 
1 
1 
1 
1 
1 
1 
1 
1 
1 
1 
1 
1 
1 
1 
1 
1 
1 
1 
1 
1 
1 
1 
1 
1 
1 
1 
1 
1 
1 
1 
1 
1 
1 
1 
1 
1 
1 
1 
1 
1 
1 
1 
1 
1 
1 
1 
1 
1 
1 
1 
1 
1 
1 
1 
1 
1 
1 
1 
VECTORS pos double
-0.392227 -0.401732 -0.424017 
-0.403333 -0.203333 -0.400114 
-0.391092 -0.00712964 -0.423656 
-0.404648 0.196898 -0.400115 
-0.402763 0.397237 -0.400115 
-0.268051 -0.41287 -0.419492 
-0.203538 -0.203538 -0.400114 
-0.203218 -0.00321788 -0.400114 
-0.196108 0.20766 -0.430211 
-0.201254 0.395035 -0.455284 
-0.0281217 -0.397956 -0.416518 
-0.00366947 -0.203669 -0.400114 
-0.00360232 -0.00360232 -0.400115 
0.0860574 0.20779 -0.477617 
0.197099 -0.396525 -0.425751 
0.185806 -0.188187 -0.423712 
0.209925 0.000540982 -0.425656 
0.186793 0.197441 -0.425244 
0.199728 0.397696 -0.400114 
0.396713 -0.403287 -0.400113 
0.39661 -0.20339 -0.400114 
0.396488 -0.00351175 -0.400114 
0.396431 0.193913 -0.400114 
-0.380611 -0.407682 -0.348138 
-0.403333 -0.203333 -0.300182 
-0.387264 -0.0139834 -0.344794 
-0.402683 0.197066 -0.300208 
-0.402763 0.397237 -0.300183 
-0.348125 -0.411432 -0.335601 
-0.291019 -0.402374 -0.338135 
-0.203538 -0.203538 -0.300182 
-0.203218 -0.00321788 -0.300181 
-0.196812 0.433688 -0.42696 
-0.00366947 -0.203669 -0.300181 
-0.00360232 -0.00360232 -0.300184 
0.0343617 0.40224 -0.417166 
0.197679 -0.394937 -0.346881 
0.177947 -0.189205 -0.346886 
0.211686 0.00541947 -0.349399 
0.19767 0.39692 -0.30021 
0.396713 -0.403287 -0.30018 
0.39661 -0.20339 -0.300182 
0.396488 -0.00351175 -0.300182 
0.39661 0.194401 -0.300197 
0.381267 0.33248 -0.39117 
-0.388596 -0.409646 -0.27163 
-0.403333 -0.203333 -0.200242 
-0.385646 -0.00856751 -0.269954 
-0.401814 0.197176 -0.200298 
-0.402763 0.397237 -0.200244 
-0.203538 -0.203538 -0.200242 
-0.203218 -0.00321788 -0.200241 
-0.192359 0.185209 -0.324548 
-0.202987 0.420623 -0.340684 
-0.00366947 -0.203669 -0.200241 
-0.00360232 -0.00360232 -0.200245 
0.204848 -0.398168 -0.266609 
0.182553 -0.200547 -0.280297 
0.210612 0.00642447 -0.273241 
0.196543 0.39673 -0.200299 
0.396713 -0.403287 -0.20024 
0.39661 -0.20339 -0.200243 
0.396488 -0.00351175 -0.200242 
0.396575 0.19619 -0.200272 
-0.388523 -0.40954 -0.1897 
-0.403333 -0.203333 -0.100295 
-0.390035 -0.0111958 -0.189436 
-0.403019 0.197055 -0.100358 
-0.402763 0.397237 -0.100297 
-0.203538 -0.203538 -0.100295 
-0.203218 -0.00321788 -0.100294 
-0.00366947 -0.203669 -0.100293 
-0.00360232 -0.00360232 -0.100298 
0.00535766 0.42935 -0.344124 
0.207723 -0.399948 -0.192948 
0.202251 -0.219225 -0.166266 
0.211923 0.00604918 -0.1978 
0.196967 0.396969 -0.100354 
0.396713 -0.403287 -0.100293 
0.39661 -0.20339 -0.100296 
0.396488 -0.00351175 -0.100295 
0.396486 0.196647 -0.100327 
-0.392091 -0.397657 -0.111322 
-0.403333 -0.203333 -0.000339502 
-0.392547 -0.0100215 -0.106473 
-0.403168 0.197011 -0.000405689 
-0.402763 0.397237 -0.000341946 
-0.203538 -0.203538 -0.000340152 
-0.203218 -0.00321788 -0.000338367 
-0.00366947 -0.203669 -0.00033785 
-0.00360232 -0.00360232 -0.000343587 
-0.0202769 0.411 -0.261613 
0.199417 -0.400288 -0.118158 
0.196453 -0.228351 -0.085306 
0.210282 0.00284514 -0.121751 
0.196913 0.396909 -0.000397428 
0.396713 -0.403287 -0.000336971 
0.39661 -0.20339 -0.000340841 
0.396488 -0.00351175 -0.000340028 
0.39651 0.196485 -0.000370774 
-0.391045 -0.393651 -0.0319702 
-0.403333 -0.203333 0.0996236 
-0.403623 0.00243712 -0.0246364 
-0.402859 0.197054 0.0995566 
-0.402763 0.397237 0.0996209 
-0.203538 -0.203538 0.0996229 
-0.203218 -0.00321788 0.0996249 
-0.00366947 -0.203669 0.0996255 
-0.00360232 -0.00360232 0.099619 
-0.00632348 0.388352 -0.186382 
0.199521 -0.398562 -0.0399398 
0.193363 -0.217899 -0.0162214 
0.209408 -0.0026897 -0.0459088 
0.196911 0.396911 0.0995666 
0.396713 -0.403287 0.0996265 
0.39661 -0.20339 0.0996221 
0.396488 -0.00351175 0.099623 
0.396508 0.196509 0.0995938 
-0.390823 -0.394768 0.0465064 
-0.403333 -0.203333 0.199595 
-0.412798 0.00592515 0.0493906 
-0.40294 0.197055 0.199528 
-0.402763 0.397237 0.199592 
-0.203538 -0.203538 0.199594 
-0.203218 -0.00321788 0.199596 
-0.000235611 -0.39784 0.0413009 
-0.00366947 -0.203669 0.199597 
-0.00360232 -0.00360232 0.19959 
0.0255031 0.403012 -0.113156 
0.204763 -0.40011 0.0483101 
0.200046 -0.19807 0.0777933 
0.215705 0.00777732 0.0301119 
0.196914 0.396914 0.199538 
0.396713 -0.403287 0.199598 
0.39661 -0.20339 0.199593 
0.396488 -0.00351175 0.199594 
0.396508 0.196509 0.199566 
-0.390133 -0.403093 0.123113 
-0.403333 -0.203333 0.299574 
-0.393593 -0.0163798 0.124841 
-0.402964 0.197048 0.299508 
-0.402763 0.397237 0.299571 
-0.203538 -0.203538 0.299573 
-0.203218 -0.00321788 0.299576 
-0.00366947 -0.203669 0.299576 
-0.00360232 -0.00360232 0.299569 
0.0195095 0.414025 -0.0168931 
0.191481 -0.414201 0.119831 
0.202882 -0.186095 0.169755 
0.187189 0.0072089 0.108056 
0.202307 0.180807 0.0118765 
0.196913 0.396913 0.299518 
0.396713 -0.403287 0.299578 
0.39661 -0.20339 0.299572 
0.396488 -0.00351175 0.299573 
0.396508 0.196508 0.299546 
-0.381895 -0.405879 0.203418 
-0.403333 -0.203333 0.399562 
-0.386943 -0.000712846 0.210778 
-0.402948 0.197049 0.399495 
-0.402763 0.397237 0.399559 
-0.203538 -0.203538 0.399561 
-0.203218 -0.00321788 0.399563 
-0.00366947 -0.203669 0.399564 
-0.00360232 -0.00360232 0.399556 
0.196913 0.396913 0.399506 
0.396713 -0.403287 0.399565 
0.39661 -0.20339 0.39956 
0.396488 -0.00351175 0.399561 
0.396508 0.196508 0.399534 
-0.185551 0.500003 -0.3885 
-0.402763 0.397237 -0.5 
0.205676 -0.00247926 -0.500025 
-0.395042 -0.00932095 -0.50003 
0.346554 0.336251 -0.500009 
-0.0282344 0.21504 -0.500002 
0.39661 -0.20339 -0.5 
-0.404409 -0.401144 -0.50004 
0.396332 0.194573 -0.5 
0.194264 -0.395588 -0.500036 
-0.19514 0.214002 -0.500022 
0.199671 -0.186144 -0.500019 
-0.25566 0.36787 -0.500008 
-0.260748 -0.419196 -0.500015 
0.396488 -0.00351175 -0.5 
-0.403333 -0.203333 -0.5 
-0.405037 0.196883 -0.5 
-0.310632 0.160221 -0.500003 
-0.203538 -0.203538 -0.5 
-0.203218 -0.00321788 -0.5 
-0.00366947 -0.203669 -0.5 
-0.00360232 -0.00360232 -0.5 
-0.163795 -0.413353 -0.500001 
0.396713 -0.403287 -0.5 
0.376143 0.446262 -0.500003 
-0.137142 0.406581 -0.500011 
0.0261034 0.186974 -0.500003 
0.162969 0.218623 -0.500006 
0.220036 0.135414 -0.500003 
-0.00482985 -0.387913 -0.500005 
0.00525734 0.390078 -0.500006 
0.200189 0.397987 -0.5 
VECTORS dir_n double
-0.0476712 0.0015893 -0.998862 
7.04054e-18 0 -1 
0.153494 -0.0412026 -0.98729 
-0.00779952 -0.000284565 -0.99997 
6.98732e-18 0 -1 
0.491918 -0.166193 -0.854632 
7.02842e-18 0 -1 
7.05719e-18 0 -1 
0.465774 0.0262393 -0.884515 
-0.749408 -0.550379 -0.368062 
-0.101408 -0.158219 -0.982183 
7.07184e-18 0 -1 
6.9602e-18 0 -1 
-0.946137 -0.112857 0.303461 
0.217499 -0.0351835 -0.975426 
-0.156934 0.0018537 -0.987607 
-0.152719 -0.0319068 -0.987754 
0.032636 0.311295 -0.949753 
0.0092227 0.0058193 -0.999941 
7.08829e-18 0 -1 
7.01147e-18 0 -1 
7.03067e-18 0 -1 
-0.00198435 0.0132196 -0.999911 
0.145831 0.0916029 -0.98506 
7.84081e-18 0 -1 
0.113121 -0.103354 -0.988191 
-0.0315221 -0.00307681 -0.999498 
7.77943e-18 0 -1 
0.866456 -0.404265 -0.292958 
-0.492274 0.141281 -0.858898 
7.82635e-18 0 -1 
7.86238e-18 0 -1 
0.519305 -0.590298 -0.617957 
7.87852e-18 0 -1 
7.74599e-18 0 -1 
0.0509436 -0.679636 -0.731779 
0.388277 0.062972 -0.919389 
0.0618967 0.0818834 -0.994718 
-0.10601 -0.0681968 -0.992024 
0.0319646 0.00971746 -0.999442 
7.89833e-18 0 -1 
7.80736e-18 0 -1 
7.82906e-18 0 -1 
-0.00159188 -0.0229917 -0.999734 
-0.144146 0.80424 -0.576558 
0.298149 0.154969 -0.941855 
8.88327e-18 0 -1 
0.368253 0.0162186 -0.929584 
0.0141315 0.000874579 -0.9999 
8.81162e-18 0 -1 
8.86599e-18 0 -1 
8.91093e-18 0 -1 
0.0889513 0.275087 -0.957296 
-0.489942 -0.239321 0.838261 
8.92917e-18 0 -1 
8.77055e-18 0 -1 
-0.2177 0.143835 -0.965359 
-0.288714 0.571049 -0.768471 
-0.0102925 -0.0322756 -0.999426 
-0.00941232 -0.00592714 -0.999938 
8.9531e-18 0 -1 
8.84443e-18 0 -1 
8.86927e-18 0 -1 
0.00228599 -0.012798 -0.999915 
0.0555612 0.0840151 -0.994914 