# vtk DataFile Version 2.0
Generated by NetDEM
ASCII 
DATASET POLYDATA
POINTS 150 double
-0.420152 -0.406426 -0.464153 
-0.408648 -0.400282 -0.386281 
-0.403333 -0.203333 -0.450418 
-0.403333 -0.203333 -0.350814 
-0.411363 -0.00580291 -0.464182 
-0.41229 -0.00473936 -0.390538 
-0.40295 0.19705 -0.450342 
-0.40295 0.19705 -0.35067 
-0.402763 0.397237 -0.450183 
-0.402763 0.397237 -0.350408 
-0.203538 -0.203538 -0.450447 
-0.203538 -0.203538 -0.350864 
-0.203218 -0.00321788 -0.45029 
-0.203218 -0.00321788 -0.35057 
-0.173545 0.195217 -0.461814 
-0.212763 0.184636 -0.388806 
-0.0243928 -0.409648 -0.451323 
-0.00401808 -0.389191 -0.365755 
-0.00366947 -0.203669 -0.450409 
-0.00366947 -0.203669 -0.350788 
-0.00360232 -0.00360232 -0.450328 
-0.00360232 -0.00360232 -0.350636 
-0.0356896 0.40099 -0.461093 
-0.0121497 0.402955 -0.37186 
0.189409 -0.401184 -0.464164 
0.198287 -0.400431 -0.38665 
0.173056 -0.00915159 -0.462097 
0.191393 -0.0122476 -0.380842 
0.196913 0.396913 -0.450214 
0.196913 0.396913 -0.350451 
0.396713 -0.403287 -0.450328 
0.396713 -0.403287 -0.350639 
0.39661 -0.20339 -0.450228 
0.39661 -0.20339 -0.35046 
0.396488 -0.00351175 -0.450449 
0.396488 -0.00351175 -0.350869 
0.396508 0.196508 -0.450251 
0.396508 0.196508 -0.350499 
-0.408648 -0.400282 -0.386281 
-0.406906 -0.403691 -0.31129 
-0.403333 -0.203333 -0.350814 
-0.403333 -0.203333 -0.2511 
-0.41229 -0.00473936 -0.390538 
-0.404813 -0.00395513 -0.309539 
-0.40295 0.19705 -0.35067 
-0.40295 0.19705 -0.250909 
-0.402763 0.397237 -0.350408 
-0.402763 0.397237 -0.250612 
-0.203538 -0.203538 -0.350864 
-0.203538 -0.203538 -0.251159 
-0.203218 -0.00321788 -0.35057 
-0.203218 -0.00321788 -0.250783 
-0.212763 0.184636 -0.388806 
-0.202447 0.194523 -0.287758 
-0.00366947 -0.203669 -0.350788 
-0.00366947 -0.203669 -0.251056 
-0.00360232 -0.00360232 -0.350636 
-0.00360232 -0.00360232 -0.25085 
-0.0121497 0.402955 -0.37186 
-0.00406651 0.394739 -0.282144 
0.198287 -0.400431 -0.38665 
0.191481 -0.400759 -0.308446 
0.191393 -0.0122476 -0.380842 
0.189251 -0.00458106 -0.307755 
0.196913 0.396913 -0.350451 
0.196913 0.396913 -0.250647 
0.396713 -0.403287 -0.350639 
0.396713 -0.403287 -0.25086 
0.39661 -0.20339 -0.35046 
0.39661 -0.20339 -0.250649 
0.396488 -0.00351175 -0.350869 
0.396488 -0.00351175 -0.251167 
0.396508 0.196508 -0.350499 
0.396508 0.196508 -0.250694 
0.395538 0.393855 -0.337161 
0.395798 0.392732 -0.232068 
-0.403333 -0.203333 -0.2511 
-0.403333 -0.203333 -0.151233 
-0.40295 0.19705 -0.250909 
-0.40295 0.19705 -0.151013 
-0.402763 0.397237 -0.250612 
-0.402763 0.397237 -0.150728 
-0.203538 -0.203538 -0.251159 
-0.203538 -0.203538 -0.151288 
-0.203218 -0.00321788 -0.250783 
-0.203218 -0.00321788 -0.150889 
-0.00366947 -0.203669 -0.251056 
-0.00366947 -0.203669 -0.151174 
-0.00360232 -0.00360232 -0.25085 
-0.00360232 -0.00360232 -0.150931 
0.196913 0.396913 -0.250647 
0.196913 0.396913 -0.150755 
0.396713 -0.403287 -0.25086 
0.396713 -0.403287 -0.150949 
0.39661 -0.20339 -0.250649 
0.39661 -0.20339 -0.150755 
0.396488 -0.00351175 -0.251167 
0.396488 -0.00351175 -0.1513 
0.396508 0.196508 -0.250694 
0.396508 0.196508 -0.150799 
-0.411363 -0.00580291 -0.464182 
-0.395134 -0.00929392 -0.500013 
0.173056 -0.00915159 -0.462097 
0.20111 0.0066868 -0.500005 
0.401766 0.401023 -0.442549 
0.401535 0.403551 -0.500003 
-0.240546 0.370165 -0.462472 
-0.221215 0.329252 -0.5 
0.17067 0.214293 -0.455279 
0.204569 0.220785 -0.500001 
0.0108046 0.186556 -0.447511 
-0.00696115 0.18727 -0.500006 
0.39661 -0.20339 -0.450228 
0.39661 -0.20339 -0.5 
-0.420152 -0.406426 -0.464153 
-0.404442 -0.40113 -0.500004 
0.396508 0.196508 -0.450251 
0.396508 0.196508 -0.5 
0.189409 -0.401184 -0.464164 
0.205992 -0.401144 -0.500008 
-0.173545 0.195217 -0.461814 
-0.188184 0.197736 -0.500016 
0.175906 -0.213969 -0.463823 
0.18586 -0.227406 -0.499999 
-0.226852 -0.43341 -0.450423 
-0.214861 -0.409135 -0.500002 
-0.0243928 -0.409648 -0.451323 
-0.005552 -0.388068 -0.500006 
0.396488 -0.00351175 -0.450449 
0.396488 -0.00351175 -0.5 
-0.403333 -0.203333 -0.450418 
-0.403333 -0.203333 -0.5 
-0.40295 0.19705 -0.450342 
-0.40295 0.19705 -0.5 
-0.402763 0.397237 -0.450183 
-0.402763 0.397237 -0.5 
-0.203538 -0.203538 -0.450447 
-0.203538 -0.203538 -0.5 
-0.203218 -0.00321788 -0.45029 
-0.203218 -0.00321788 -0.5 
-0.00366947 -0.203669 -0.450409 
-0.00366947 -0.203669 -0.5 
-0.00360232 -0.00360232 -0.450328 
-0.00360232 -0.00360232 -0.5 
0.196913 0.396913 -0.450214 
0.196913 0.396913 -0.5 
0.396713 -0.403287 -0.450328 
0.396713 -0.403287 -0.5 
-0.0356896 0.40099 -0.461093 
-0.0296371 0.431292 -0.500043 
LINES 75 225
2 0 1
2 2 3
2 4 5
2 6 7
2 8 9
2 10 11
2 12 13
2 14 15
2 16 17
2 18 19
2 20 21
2 22 23
2 24 25
2 26 27
2 28 29
2 30 31
2 32 33
2 34 35
2 36 37
2 38 39
2 40 41
2 42 43
2 44 45
2 46 47
2 48 49
2 50 51
2 52 53
2 54 55
2 56 57
2 58 59
2 60 61
2 62 63
2 64 65
2 66 67
2 68 69
2 70 71
2 72 73
2 74 75
2 76 77
2 78 79
2 80 81
2 82 83
2 84 85
2 86 87
2 88 89
2 90 91
2 92 93
2 94 95
2 96 97
2 98 99
2 100 101
2 102 103
2 104 105
2 106 107
2 108 109
2 110 111
2 112 113
2 114 115
2 116 117
2 118 119
2 120 121
2 122 123
2 124 125
2 126 127
2 128 129
2 130 131
2 132 133
2 134 135
2 136 137
2 138 139
2 140 141
2 142 143
2 144 145
2 146 147
2 148 149
POINT_DATA 150
SCALARS id int 1
LOOKUP_TABLE default
0
25
1
26
2
27
3
28
4
29
6
31
7
32
8
33
10
35
11
36
12
37
14
39
15
40
17
42
19
44
20
45
21
46
22
47
23
48
25
50
26
51
27
52
28
53
29
54
31
56
32
57
33
58
36
61
37
62
39
64
40
65
42
67
44
69
45
70
46
71
47
72
48
73
49
74
51
76
53
78
54
79
56
81
57
82
61
86
62
87
69
94
70
95
71
96
72
97
73
98
2
4
17
4
24
4
9
4
18
4
13
4
21
4
0
4
23
4
15
4
8
4
16
4
5
4
10
4
22
4
1
4
3
4
4
4
6
4
7
4
11
4
12
4
19
4
20
4
14
4
CELL_DATA 75
VECTORS force double
0.982847 0.480933 0.256245 
0 0 -727.501 
5.20743 -0.690088 -22.6453 
0 0 -613.381 
0 0 -460.495 
0 0 -756.746 
0 0 -526.122 
6.09902 1.15045 -40.4599 
1.54484 2.00379 -16.0825 
0 0 -682.993 
0 0 -558.225 
-12.2758 34.4773 -121.058 
2.68525 -0.567941 -16.3579 
4.7585 1.31582 -18.0577 
0 0 -464.307 
0 0 -578.861 
0 0 -436.678 
0 0 -761.821 
0 0 -456.422 
0.0191886 0.0204482 -4.90154 
0 0 -455.318 
3.43835 -1.06382 -8.95029 
0 0 -366.74 
0 0 -300.467 
0 0 -459.482 
0 0 -356.331 
-0.546617 3.12518 -16.9329 
0 0 -413.737 
0 0 -311.999 
-11.4131 -4.64331 -87.2513 
0.450817 0.0271547 -6.84935 
0.296758 -0.00303451 -28.6178 
0 0 -302.573 
0 0 -328.671 
0 0 -322.296 
0 0 -466.274 
0 0 -347.21 
0.0114977 0.411116 -10.2932 
0 0 -146.524 
0 0 -79.5939 
0 0 -179.53 
0 0 -139.339 
0 0 -124.152 
0 0 -125.78 
0 0 -54.2631 
0 0 -188.17 
0 0 -58.1414 
0 0 -147.997 
0 0 -145.832 
0 0 -140.77 
-2.29979 1.31526 42.8813 
-1.83793 -3.18833 27.1585 
0.141646 -0.508369 14.4701 
-0.664288 2.05958 3.63995 
-1.31381 -0.467319 5.51663 
3.26712 -0.328345 12.0449 
0 0 531.144 
-2.10321 -0.692506 9.04555 
0 0 541.835 
-1.34949 0.232413 30.7671 
-8.4458 0.352567 56.9271 
-1.92585 2.26285 12.0679 
-1.32737 -3.4094 8.4772 
-1.46386 -3.72974 29.7178 
0 0 878.892 
0 0 827.401 
0 0 686.463 
0 0 558.891 
0 0 874.759 
0 0 597.86 
0 0 798.767 
0 0 648.854 
0 0 572.811 
0 0 647.845 
11.1339 -80.8618 151.69 
VECTORS moment double
0 0 0 
0 0 0 
0 0 0 
0 0 0 
0 0 0 
0 0 0 
0 0 0 
0 0 0 
0 0 0 
0 0 0 
0 0 0 
0 0 0 
0 0 0 
0 0 0 
0 0 0 
0 0 0 
0 0 0 
0 0 0 
0 0 0 
0 0 0 
0 0 0 
0 0 0 
0 0 0 
0 0 0 
0 0 0 
0 0 0 
0 0 0 
0 0 0 
0 0 0 
0 0 0 
0 0 0 
0 0 0 
0 0 0 
0 0 0 
0 0 0 
0 0 0 
0 0 0 
0 0 0 
0 0 0 
0 0 0 
0 0 0 
0 0 0 
0 0 0 
0 0 0 
0 0 0 
0 0 0 
0 0 0 
0 0 0 
0 0 0 
0 0 0 
0 0 0 
0 0 0 
0 0 0 
0 0 0 
0 0 0 
0 0 0 
0 0 0 
0 0 0 
0 0 0 
0 0 0 
0 0 0 
0 0 0 
0 0 0 
0 0 0 
0 0 0 
0 0 0 
0 0 0 
0 0 0 
0 0 0 
0 0 0 
0 0 0 
0 0 0 
0 0 0 
0 0 0 
0 0 0 
SCALARS num_collisions int 1
LOOKUP_TABLE default
1 
1 
1 
1 
1 
1 
1 
1 
1 
1 
1 
1 
1 
1 
1 
1 
1 
1 
1 
1 
1 
1 
1 
1 
1 
1 
1 
1 
1 
1 
1 
1 
1 
1 
1 
1 
1 
1 
1 
1 
1 
1 
1 
1 
1 
1 
1 
1 
1 
1 
1 
1 
1 
1 
1 
1 
1 
1 
1 
1 
1 
1 
1 
1 
1 
1 
1 
1 
1 
1 
1 
1 
1 
1 
1 
VECTORS pos double
-0.394994 -0.396995 -0.423197 
-0.403333 -0.203333 -0.400619 
-0.390364 -0.0087566 -0.423132 
-0.40295 0.19705 -0.400508 
-0.402763 0.397237 -0.400287 
-0.203538 -0.203538 -0.40066 
-0.203218 -0.00321788 -0.40043 
-0.206234 0.199415 -0.43594 
0.00354585 -0.387022 -0.422178 
-0.00366947 -0.203669 -0.400602 
-0.00360232 -0.00360232 -0.400485 
-0.0211688 0.403819 -0.424983 
0.213485 -0.399752 -0.423094 
0.211123 9.59146e-05 -0.42575 
0.196913 0.396913 -0.400327 
0.396713 -0.403287 -0.400486 
0.39661 -0.20339 -0.400342 
0.396488 -0.00351175 -0.400663 
0.396508 0.196508 -0.400375 
-0.416043 -0.405322 -0.351333 
-0.403333 -0.203333 -0.300966 
-0.40424 -0.0134533 -0.348184 
-0.40295 0.19705 -0.300797 
-0.402763 0.397237 -0.300505 
-0.203538 -0.203538 -0.301023 
-0.203218 -0.00321788 -0.300681 
-0.214045 0.203751 -0.337109 
-0.00366947 -0.203669 -0.300933 
-0.00360232 -0.00360232 -0.300752 
-0.010409 0.389627 -0.324059 
0.176598 -0.386982 -0.35491 
0.179523 -0.00169854 -0.343134 
0.196913 0.396913 -0.300546 
0.396713 -0.403287 -0.300758 
0.39661 -0.20339 -0.300555 
0.396488 -0.00351175 -0.301029 
0.396508 0.196508 -0.300599 
0.386279 0.401454 -0.287458 
-0.403333 -0.203333 -0.201184 
-0.40295 0.19705 -0.200977 
-0.402763 0.397237 -0.20067 
-0.203538 -0.203538 -0.201243 
-0.203218 -0.00321788 -0.200846 
-0.00366947 -0.203669 -0.201134 
-0.00360232 -0.00360232 -0.200906 
0.196913 0.396913 -0.200702 
0.396713 -0.403287 -0.200921 
0.39661 -0.20339 -0.200706 
0.396488 -0.00351175 -0.201253 
0.396508 0.196508 -0.200753 
-0.395134 -0.00929392 -0.500013 
0.20111 0.0066868 -0.500005 
0.401535 0.403551 -0.500003 
-0.221215 0.329252 -0.5 
0.204569 0.220785 -0.500001 
-0.00696115 0.18727 -0.500006 
0.39661 -0.20339 -0.5 
-0.404442 -0.40113 -0.500004 
0.396508 0.196508 -0.5 
0.205992 -0.401144 -0.500008 
-0.188184 0.197736 -0.500016 
0.18586 -0.227406 -0.499999 
-0.214861 -0.409135 -0.500002 
-0.005552 -0.388068 -0.500006 
0.396488 -0.00351175 -0.5 
-0.403333 -0.203333 -0.5 
-0.40295 0.19705 -0.5 
-0.402763 0.397237 -0.5 
-0.203538 -0.203538 -0.5 
-0.203218 -0.00321788 -0.5 
-0.00366947 -0.203669 -0.5 
-0.00360232 -0.00360232 -0.5 
0.196913 0.396913 -0.5 
0.396713 -0.403287 -0.5 
-0.0296371 0.431292 -0.500043 
VECTORS dir_n double
0.0482271 -0.0185517 0.998664 
1.37457e-18 0 -1 
0.160156 -0.0789539 -0.983929 
1.63031e-18 0 -1 
2.17157e-18 0 -1 
1.32145e-18 0 -1 
1.9007e-18 0 -1 
0.435649 0.299218 -0.848927 
-0.298629 -0.047006 -0.953211 
1.46414e-18 0 -1 
1.79139e-18 0 -1 
-0.0413044 0.0955656 -0.994566 
-0.0195168 0.0344728 -0.999215 
-0.238456 -0.0232701 -0.970875 
2.15375e-18 0 -1 
1.72753e-18 0 -1 
2.29002e-18 0 -1 
1.31264e-18 0 -1 
2.19096e-18 0 -1 
0.20359 0.0886006 -0.975039 
2.19627e-18 0 -1 
0.294896 0.0389582 -0.954735 
2.72673e-18 0 -1 
3.32815e-18 0 -1 
2.17636e-18 0 -1 
2.80638e-18 0 -1 
0.323127 0.0138288 -0.946255 
2.41699e-18 0 -1 
3.20514e-18 0 -1 
0.132736 0.358488 -0.924049 
0.314839 -0.016812 -0.948996 
-0.0160015 0.0222319 -0.999625 
3.30499e-18 0 -1 
3.04255e-18 0 -1 
3.10273e-18 0 -1 
2.14466e-18 0 -1 
2.8801e-18 0 -1 
-0.0417542 -0.108306 -0.99324 
6.82484e-18 0 -1 
1.25638e-17 0 -1 
5.5701e-18 0 -1 
7.17674e-18 0 -1 
8.05466e-18 0 -1 
7.95037e-18 0 -1 
1.84287e-17 0 -1 
5.31435e-18 0 -1 
1.71995e-17 0 -1 
6.75688e-18 0 -1 
6.85721e-18 0 -1 
7.10377e-18 0 -1 
4.7506e-17 -1.33174e-16 1 
2.16056e-16 -1.35756e-16 1 
-4.66599e-17 -1.22371e-16 1 
1.08185e-16 -2.03742e-17 1 
1.60575e-16 5.74149e-17 1 
3.70018e-17 1.59108e-17 1 
1.88273e-18 0 1 
1.26865e-16 1.42664e-16 1 
1.84558e-18 0 1 
5.45379e-17 -1.33679e-16 1 
-6.5853e-17 -8.4162e-18 1 
3.90004e-17 4.12827e-17 1 
1.25429e-16 -5.72246e-17 1 
-1.08195e-16 5.16446e-17 1 
1.1378e-18 0 1 
1.2086e-18 0 1 
1.45674e-18 0 1 
1.78926e-18 0 1 
1.14317e-18 0 1 
1.67263e-18 0 1 
1.25193e-18 0 1 
1.54118e-18 0 1 
1.74578e-18 0 1 
1.54358e-18 0 1 
-1.50652e-16 1.30425e-17 1 
VECTORS dir_s double
0.893121 0.448468 -0.0347993 
1 0 0 
0.793105 0.603722 0.0806505 
1 0 0 
1 0 0 
1 0 0 
1 0 0 
-0.607248 -0.598475 -0.522568 
0.871108 0.39458 -0.292365 
1 0 0 
1 0 0 
-0.299755 0.948377 0.103576 
0.935604 -0.351739 -0.0304094 
0.953018 0.186691 -0.238545 
1 0 0 
1 0 0 
1 0 0 
1 0 0 
1 0 0 
-0.89816 -0.379493 -0.222022 
1 0 0 
0.401433 -0.911767 0.0867887 
1 0 0 
1 0 0 
1 0 0 
1 0 0 
-0.853384 0.436453 -0.285035 
1 0 0 
1 0 0 
-0.516074 -0.770954 -0.373226 
-0.945661 0.0800332 -0.31515 
0.762844 -0.646036 -0.0265793 
1 0 0 
1 0 0 
1 0 0 
1 0 0 
1 0 0 
0.275246 0.954394 -0.115641 
1 0 0 
1 0 0 
1 0 0 
1 0 0 
1 0 0 
1 0 0 
1 0 0 
1 0 0 
1 0 0 
1 0 0 
1 0 0 
1 0 0 
-0.868065 0.496451 8.71092e-17 
-0.49942 -0.86636 -2.81005e-17 
0.268404 -0.963307 -8.68081e-17 
-0.306963 0.951721 -3.17323e-17 
-0.942173 -0.335128 -2.56956e-19 
0.994988 -0.099996 4.73811e-17 
1 0 0 
-0.949837 -0.312745 6.01123e-17 
1 0 0 
-0.985492 0.169724 4.44045e-17 
-0.99913 0.0417083 -8.29957e-17 
-0.648122 0.761537 -5.98676e-17 
-0.3628 -0.931867 -5.06171e-17 
-0.36535 -0.93087 -3.74845e-18 
1 0 0 
1 0 0 
1 0 0 
1 0 0 
1 0 0 
1 0 0 
1 0 0 
1 0 0 
1 0 0 
1 0 0 
0.136403 -0.990653 3.43693e-17 
