# vtk DataFile Version 2.0
Generated by NetDEM
ASCII 
DATASET POLYDATA
POINTS 876 double
-0.41879 -0.407007 -0.463735 
-0.429297 -0.407641 -0.392793 
-0.447966 -0.200609 -0.450019 
-0.449798 -0.258513 -0.368517 
-0.447966 -0.200609 -0.450019 
-0.422135 -0.121334 -0.401455 
-0.412327 -0.00617241 -0.464703 
-0.371876 0.068042 -0.406575 
-0.412327 -0.00617241 -0.464703 
-0.409366 -0.0181298 -0.385505 
-0.449277 0.114097 -0.450013 
-0.371876 0.068042 -0.406575 
-0.448859 0.350158 -0.450061 
-0.446007 0.450057 -0.450002 
-0.448859 0.350158 -0.450061 
-0.441294 0.276317 -0.383062 
-0.448859 0.350158 -0.450061 
-0.449922 0.383802 -0.355909 
-0.271058 -0.429623 -0.459147 
-0.334234 -0.407313 -0.404787 
-0.271058 -0.429623 -0.459147 
-0.264264 -0.438863 -0.363289 
-0.307751 -0.211291 -0.450044 
-0.320941 -0.204725 -0.351163 
-0.307751 -0.211291 -0.450044 
-0.23267 -0.159829 -0.408662 
-0.195184 -0.0092352 -0.450042 
-0.129456 -0.0553993 -0.390512 
-0.195184 -0.0092352 -0.450042 
-0.240833 -0.00477609 -0.35177 
-0.173028 0.172473 -0.463852 
-0.177392 0.0790241 -0.450298 
-0.173028 0.172473 -0.463852 
-0.244423 0.186933 -0.384596 
-0.253463 0.366183 -0.463158 
-0.357526 0.373997 -0.407197 
-0.253463 0.366183 -0.463158 
-0.230655 0.327447 -0.394515 
-0.0560975 -0.39642 -0.460729 
-0.0854444 -0.388942 -0.39574 
-0.145198 -0.134196 -0.450027 
-0.129456 -0.0553993 -0.390512 
-0.0556063 -0.087112 -0.450032 
0.0511168 -0.0929912 -0.450016 
-0.0556063 -0.087112 -0.450032 
-0.00726162 -0.0227399 -0.393332 
-0.0556063 -0.087112 -0.450032 
-0.129456 -0.0553993 -0.390512 
0.0362932 0.179031 -0.452311 
0.111916 0.137884 -0.398011 
0.193177 -0.401373 -0.462864 
0.203891 -0.413661 -0.390145 
0.168352 -0.210458 -0.462987 
0.16545 -0.206082 -0.389488 
0.17311 -0.00742359 -0.462732 
0.174815 0.0136508 -0.385457 
0.160604 0.20919 -0.465052 
0.119129 0.301429 -0.426063 
0.300731 0.403198 -0.415484 
0.371433 0.439083 -0.465055 
0.300731 0.403198 -0.415484 
0.330734 0.307847 -0.412742 
0.300731 0.403198 -0.415484 
0.285847 0.373556 -0.321159 
0.450029 -0.40778 -0.450049 
0.394238 -0.450017 -0.378644 
0.430892 -0.303444 -0.450031 
0.436507 -0.356323 -0.365358 
0.380365 0.0909274 -0.450024 
0.322999 0.0635405 -0.37284 
0.380365 0.0909274 -0.450024 
0.449991 0.13957 -0.39731 
0.371433 0.439083 -0.465055 
0.397384 0.450176 -0.37011 
-0.429297 -0.407641 -0.392793 
-0.434737 -0.440264 -0.326201 
-0.449798 -0.258513 -0.368517 
-0.420513 -0.318646 -0.29418 
-0.409366 -0.0181298 -0.385505 
-0.315538 -0.022971 -0.360319 
-0.409366 -0.0181298 -0.385505 
-0.450878 -0.030846 -0.316502 
-0.334234 -0.407313 -0.404787 
-0.298657 -0.316946 -0.34755 
-0.23267 -0.159829 -0.408662 
-0.177292 -0.171329 -0.326204 
-0.154163 -0.0985727 -0.203247 
-0.165827 -0.071718 -0.298843 
-0.154163 -0.0985727 -0.203247 
-0.236275 -0.0627023 -0.158878 
-0.154163 -0.0985727 -0.203247 
-0.115527 -0.0340484 -0.137349 
-0.146413 0.402638 -0.447354 
-0.144211 0.442054 -0.336315 
-0.146413 0.402638 -0.447354 
-0.111646 0.313679 -0.399398 
-0.0854444 -0.388942 -0.39574 
-0.00242499 -0.338735 -0.345978 
-0.0854444 -0.388942 -0.39574 
-0.160297 -0.376715 -0.333629 
0.315907 -0.238271 -0.108172 
0.356106 -0.212887 -0.0202185 
0.315907 -0.238271 -0.108172 
0.297403 -0.16243 -0.173955 
0.315907 -0.238271 -0.108172 
0.295538 -0.321348 -0.0563863 
-0.0321148 -0.0136937 -0.30275 
-0.00726162 -0.0227399 -0.393332 
-0.0321148 -0.0136937 -0.30275 
0.00405033 -0.00879663 -0.209664 
0.0265098 0.259612 -0.44994 
0.0863462 0.236455 -0.366368 
0.0265098 0.259612 -0.44994 
-0.0372388 0.222704 -0.386008 
0.119129 0.301429 -0.426063 
0.0663609 0.397025 -0.408787 
0.203891 -0.413661 -0.390145 
0.202578 -0.43569 -0.31914 
0.16545 -0.206082 -0.389488 
0.238653 -0.142752 -0.388485 
0.16545 -0.206082 -0.389488 
0.215747 -0.198219 -0.306808 
0.174815 0.0136508 -0.385457 
0.162096 0.0561246 -0.329029 
0.196267 0.112591 -0.456042 
0.273552 0.0661542 -0.443778 
0.196267 0.112591 -0.456042 
0.261593 0.175758 -0.443467 
0.196267 0.112591 -0.456042 
0.111916 0.137884 -0.398011 
0.285847 0.373556 -0.321159 
0.249348 0.44998 -0.268003 
0.394238 -0.450017 -0.378644 
0.449951 -0.446457 -0.295683 
0.394238 -0.450017 -0.378644 
0.342563 -0.410633 -0.302635 
0.436507 -0.356323 -0.365358 
0.45001 -0.310673 -0.277457 
0.436507 -0.356323 -0.365358 
0.354377 -0.313956 -0.32721 
0.449991 0.13957 -0.39731 
0.386462 0.166597 -0.324973 
0.449991 0.13957 -0.39731 
0.449988 0.234118 -0.364759 
0.424999 0.339892 -0.456346 
0.43755 0.254952 -0.460059 
0.424999 0.339892 -0.456346 
0.431966 0.368003 -0.376051 
-0.434737 -0.440264 -0.326201 
-0.434523 -0.452817 -0.243866 
-0.320941 -0.204725 -0.351163 
-0.319609 -0.140074 -0.274908 
-0.291 0.267114 -0.450014 
-0.331916 0.232581 -0.365564 
-0.441294 0.276317 -0.383062 
-0.422132 0.260379 -0.286234 
-0.441294 0.276317 -0.383062 
-0.423473 0.242246 -0.463931 
-0.181323 -0.375061 -0.451279 
-0.158751 -0.448102 -0.391239 
-0.236275 -0.0627023 -0.158878 
-0.274282 -0.121197 -0.0872319 
-0.177392 0.0790241 -0.450298 
-0.274957 0.0925395 -0.404249 
-0.347943 0.334752 -0.332095 
-0.357526 0.373997 -0.407197 
-0.347943 0.334752 -0.332095 
-0.282617 0.316464 -0.275495 
0.0434987 -0.438599 -0.449709 
0.0950238 -0.452429 -0.355514 
0.0434987 -0.438599 -0.449709 
0.00987225 -0.434386 -0.354736 
-0.0372388 0.222704 -0.386008 
0.00748507 0.293616 -0.338504 
-0.0372388 0.222704 -0.386008 
-0.107547 0.276385 -0.318091 
0.254955 0.331468 -0.463925 
0.330734 0.307847 -0.412742 
0.254955 0.331468 -0.463925 
0.204691 0.384654 -0.394555 
0.202578 -0.43569 -0.31914 
0.26291 -0.446792 -0.240493 
0.202578 -0.43569 -0.31914 
0.0950238 -0.452429 -0.355514 
0.0511168 -0.0929912 -0.450016 
0.134606 -0.0967731 -0.397407 
0.0511168 -0.0929912 -0.450016 
0.0188657 -0.119586 -0.346487 
0.162096 0.0561246 -0.329029 
0.19672 -0.0312 -0.271818 
0.273552 0.0661542 -0.443778 
0.322999 0.0635405 -0.37284 
0.111916 0.137884 -0.398011 
0.0498677 0.118997 -0.326466 
0.378813 -0.217652 -0.450048 
0.450036 -0.208504 -0.380519 
0.381452 -0.108192 -0.450072 
0.347641 -0.0759067 -0.361678 
0.381452 -0.108192 -0.450072 
0.44992 -0.106414 -0.377279 
0.449988 0.234118 -0.364759 
0.448597 0.219094 -0.265942 
0.449988 0.234118 -0.364759 
0.43755 0.254952 -0.460059 
-0.434523 -0.452817 -0.243866 
-0.390038 -0.438088 -0.168563 
-0.177292 -0.171329 -0.326204 
-0.117402 -0.20508 -0.253586 
-0.274957 0.0925395 -0.404249 
-0.371876 0.068042 -0.406575 
-0.360202 0.140523 -0.338645 
-0.331916 0.232581 -0.365564 
-0.360202 0.140523 -0.338645 
-0.28646 0.0866752 -0.297874 
-0.158751 -0.448102 -0.391239 
-0.264264 -0.438863 -0.363289 
-0.129456 -0.0553993 -0.390512 
-0.165827 -0.071718 -0.298843 
-0.2432 0.0472937 -0.216549 
-0.162183 0.114208 -0.246485 
-0.2432 0.0472937 -0.216549 
-0.295679 -0.0409944 -0.269386 
-0.2432 0.0472937 -0.216549 
-0.245442 0.0323971 -0.117708 
-0.0555223 0.126614 -0.442766 
-0.135617 0.146275 -0.395132 
-0.357526 0.373997 -0.407197 
-0.312994 0.438809 -0.347494 
0.0950238 -0.452429 -0.355514 
0.0819528 -0.418485 -0.269654 
0.0200802 0.047639 -0.450109 
-0.00726162 -0.0227399 -0.393332 
0.0200802 0.047639 -0.450109 
0.032234 0.0434558 -0.354681 
0.0663609 0.397025 -0.408787 
-0.0024924 0.437722 -0.464726 
0.0663609 0.397025 -0.408787 
-0.00629737 0.413549 -0.36873 
0.26291 -0.446792 -0.240493 
0.302211 -0.388158 -0.206978 
0.125512 0.0633223 -0.266207 
0.0427036 0.0712245 -0.253775 
0.14597 0.450003 -0.450016 
0.143307 0.449938 -0.350061 
0.354377 -0.313956 -0.32721 
0.391685 -0.22495 -0.301034 
0.44992 -0.106414 -0.377279 
0.437249 -0.037029 -0.306418 
0.44992 -0.106414 -0.377279 
0.449945 -0.144883 -0.285021 
0.330734 0.307847 -0.412742 
0.332607 0.208991 -0.397808 
0.431966 0.368003 -0.376051 
0.399311 0.299419 -0.308447 
0.431966 0.368003 -0.376051 
0.438824 0.399927 -0.295314 
-0.390038 -0.438088 -0.168563 
-0.369991 -0.363184 -0.114352 
-0.390038 -0.438088 -0.168563 
-0.461847 -0.452355 -0.121334 
-0.369991 -0.363184 -0.114352 
-0.383579 -0.267929 -0.141539 
-0.295679 -0.0409944 -0.269386 
-0.319609 -0.140074 -0.274908 
-0.295679 -0.0409944 -0.269386 
-0.353564 0.0116264 -0.229966 
-0.449922 0.383802 -0.355909 
-0.450013 0.353095 -0.260773 
-0.245442 0.0323971 -0.117708 
-0.233548 0.0301764 -0.0184573 
-0.00726162 -0.0227399 -0.393332 
0.032234 0.0434558 -0.354681 
0.356106 -0.212887 -0.0202185 
0.332347 -0.270905 0.0576619 
0.0188657 -0.119586 -0.346487 
0.0137722 -0.103689 -0.247904 
0.032234 0.0434558 -0.354681 
0.0498677 0.118997 -0.326466 
-0.0024924 0.437722 -0.464726 
-0.00629737 0.413549 -0.36873 
0.302211 -0.388158 -0.206978 
0.269199 -0.431952 -0.125497 
0.0427036 0.0712245 -0.253775 
0.0498677 0.118997 -0.326466 
0.0427036 0.0712245 -0.253775 
0.00241683 0.112531 -0.184604 
0.349201 0.450001 -0.262528 
0.438824 0.399927 -0.295314 
0.349201 0.450001 -0.262528 
0.382095 0.426942 -0.186296 
0.450036 -0.208504 -0.380519 
0.391685 -0.22495 -0.301034 
-0.461847 -0.452355 -0.121334 
-0.444006 -0.456868 -0.000329953 
-0.319609 -0.140074 -0.274908 
-0.338906 -0.218656 -0.216183 
-0.319609 -0.140074 -0.274908 
-0.230581 -0.171015 -0.241493 
-0.450878 -0.030846 -0.316502 
-0.448093 -0.0966251 -0.256811 
-0.312994 0.438809 -0.347494 
-0.381826 0.450008 -0.27584 
-0.312994 0.438809 -0.347494 
-0.234735 0.43991 -0.285257 
-0.160297 -0.376715 -0.333629 
-0.220987 -0.351905 -0.234172 
-0.160297 -0.376715 -0.333629 
-0.138305 -0.414281 -0.241734 
-0.160297 -0.376715 -0.333629 
-0.13825 -0.297817 -0.312911 
-0.186609 -0.15835 -0.129928 
-0.145839 -0.243799 -0.0977864 
-0.135617 0.146275 -0.395132 
-0.193352 0.0777768 -0.338665 
-0.230655 0.327447 -0.394515 
-0.167898 0.354015 -0.323778 
-0.230655 0.327447 -0.394515 
-0.207802 0.274529 -0.327382 
0.295538 -0.321348 -0.0563863 
0.358744 -0.396484 -0.074333 
0.450029 0.0517216 -0.153888 
0.448141 0.0825397 -0.248988 
0.450029 0.0517216 -0.153888 
0.449408 0.151397 -0.161801 
-0.111646 0.313679 -0.399398 
-0.167898 0.354015 -0.323778 
0.238653 -0.142752 -0.388485 
[...]
POINT_DATA 876
SCALARS id int 1
LOOKUP_TABLE default
0
25
1
26
1
152
2
103
2
27
3
103
4
29
4
54
4
104
5
30
5
105
6
51
6
31
7
81
7
77
8
58
8
128
9
84
9
134
10
35
11
81
12
66
12
108
12
81
13
69
15
40
16
41
17
42
18
39
19
24
19
98
19
44
20
45
21
46
23
172
23
48
24
124
25
50
26
226
27
52
27
127
30
250
31
76
32
162
32
57
32
237
34
184
34
139
35
160
35
130
36
111
36
192
36
136
37
108
37
312
38
269
38
63
39
89
40
65
41
141
41
216
42
67
43
68
43
93
43
69
44
194
45
145
45
120
46
195
46
95
48
97
48
73
49
74
49
99
50
75
51
126
53
154
54
179
54
109
55
80
57
356
58
78
59
84
59
283
60
85
60
185
63
164
63
158
64
98
64
144
65
90
65
85
66
166
66
112
67
267
68
172
69
138
71
121
72
171
72
96
73
273
73
74
75
100
76
251
78
103
79
154
79
307
80
105
81
162
82
208
82
102
82
107
83
133
84
129
85
165
88
108
88
113
89
114
89
189
90
115
92
117
94
169
95
170
96
222
96
196
98
123
99
173
99
149
100
101
100
125
101
326
102
126
102
177
104
329
107
407
108
113
111
346
112
186
113
138
114
189
115
215
117
138
117
238
119
149
119
199
121
170
125
150
126
401
126
151
127
176
129
204
129
282
130
205
130
230
130
155
132
361
133
203
134
209
134
153
136
265
137
272
137
248
139
209
141
147
141
216
141
146
143
144
146
170
148
222
148
272
149
174
152
311
153
283
153
253
155
181
156
190
156
315
156
285
157
309
157
328
158
188
160
185
160
206
164
188
165
190
169
214
170
221
171
297
172
197
174
224
174
298
176
277
177
252
178
303
179
201
181
251
182
333
182
334
184
263
184
282
186
336
188
288
189
263
189
239
192
217
192
271
194
344
195
221
195
220
196
271
197
297
199
318
200
255
201
354
202
253
202
257
203
208
204
254
205
255
205
225
206
207
206
251
207
390
208
233
209
234
210
235
212
238
212
287
215
290
216
341
217
266
217
396
217
242
218
243
220
245
221
296
222
347
224
249
227
328
227
228
228
404
229
304
229
429
230
280
232
356
232
381
233
253
234
258
234
333
235
281
235
260
236
386
237
386
238
337
239
264
242
372
243
268
243
294
244
299
244
344
245
265
246
296
246
371
246
420
247
397
247
343
249
274
251
331
252
377
254
304
257
258
259
282
260
285
261
320
262
289
262
344
265
320
268
368
270
295
273
348
273
298
274
324
276
281
277
375
278
327
278
301
280
305
285
310
285
340
286
359
287
338
288
333
288
313
289
314
291
436
292
317
298
398
301
377
302
326
302
376
305
306
309
332
310
335
312
411
313
338
314
339
315
435
316
321
316
422
317
437
318
374
318
323
321
497
323
348
326
401
327
352
327
353
328
329
330
335
334
359
334
339
337
432
338
463
339
364
340
465
346
395
352
428
353
402
353
453
361
405
362
367
362
468
363
393
363
463
364
389
367
472
368
393
369
464
373
397
377
402
377
382
393
418
395
415
396
465
397
423
397
398
402
452
405
411
407
427
420
471
423
448
427
457
304
0
50
0
127
0
278
0
329
0
354
0
316
1
137
1
148
1
20
1
86
1
121
1
174
1
345
1
195
1
149
1
261
1
296
1
122
1
298
1
245
2
45
2
75
2
80
2
280
2
125
2
415
2
156
2
94
3
204
3
29
3
239
3
274
3
119
3
319
3
344
3
53
4
17
4
122
4
49
4
47
4
180
4
83
4
0
4
74
4
88
4
71
4
10
4
64
4
114
4
55
4
16
4
24
4
2
4
20
4
72
4
109
4
12
4
8
4
5
4
15
4
38
4
66
4
18
4
135
4
9
4
60
4
21
4
23
4
187
4
68
4
94
4
11
4
29
4
3
4
147
4
13
4
43
4
33
4
34
4
7
4
4
4
6
4
110
4
22
4
1
4
CELL_DATA 438
VECTORS force double
8.71926 15.8728 -90.8907 
-0.202594 3.88384 -11.0827 
-2.24485 -6.11736 -12.7556 
-17.7715 -28.8914 59.6058 
-29.0001 -33.8348 -26.4354 
-11.9211 -0.20319 12.0851 
-15.692 493.297 -1200 
-7.04329 1009.36 52.674 
-2.45738 900.823 -731.292 
3.49373 -3.85836 -9.90542 
-1.75415 0.266973 -10.056 
3.50121 -6.12418 -49.911 
-10.7974 -5.07051 -15.1439 
237.848 -63.1439 -741.659 
291.906 -200.748 -188.243 
8.07642 9.02019 -13.3944 
2.59654 1.13771 -9.58915 
-5.47348 -4.68789 -36.8477 
-75.6316 19.7543 -151.92 
129.732 56.718 -18.1117 
219.777 -110.928 -507.021 
-39.2529 -10.7206 -23.5129 
-0.694455 -0.48398 -23.2933 
222.091 -16.5158 -176.555 
-75.2788 43.0406 162.627 
2.77824 8.55141 -119.44 
-46.6911 -3.01544 -90.0259 
26.7235 -16.9827 -88.7655 
10.172 -16.864 -13.2964 
-16.8059 -12.3203 28.4529 
1.92781 11.1969 10.0844 
9.55588 -1.54303 -27.4681 
91.601 -5.75198 -170.116 
137.411 -249.539 -835.872 
32.3652 15.1604 307.959 
26.918 414.297 865.485 
1.52761 1.41005 -13.8018 
16.1558 13.0595 -77.5763 
-0.670463 2.73613 -2.64593 
-18.7637 21.8288 -79.1303 
24.7522 5.87411 -70.8591 
0.497535 -3.02163 -3.54938 
-12.4799 -0.830688 -11.1836 
-184.994 48.3476 578.383 
-10.4239 -191.792 455.221 
56.2042 -169.531 333.967 
142.319 314.756 -300.453 
34.5903 162.616 -95.3679 
69.4507 -90.5698 -509.504 
172.626 145.226 102.013 
-4.00852 5.18323 -29.7043 
-4.19017 -23.1541 46.898 
-5.39075 18.9112 -7.47799 
0.493661 1.35468 43.3994 
-2.96093 6.58896 -35.725 
-61.9307 34.1349 1.55013 
34.9261 -16.1837 -27.441 
10.6903 -16.2202 -0.798428 
-32.1495 7.11375 -76.2755 
44.2665 -26.0427 96.3762 
-35.878 -57.0268 91.4204 
11.876 -10.42 -52.5487 
-135.323 29.9921 -55.5895 
-15.012 -16.5745 -83.8106 
-64.7081 15.9893 -29.6111 
8.54537 -6.07804 -15.2999 
-79.7668 14.7242 75.6956 
-90.9374 0.797316 54.5384 
420.462 -370.008 733.8 
209.182 -107.201 864.464 
-561.396 46.6094 -979.18 
-681.523 111.046 -1428.63 
28.2851 -32.3914 169.131 
-5.88354 -30.8186 -24.737 
1.95575 14.6704 -70.0865 
4.3388 -12.6928 -37.7358 
4.41514 4.62816 -13.616 
-3.35848 13.8824 23.4398 
17.1254 -373.509 102.565 
-24.8984 -17.0471 -19.3394 
128.803 -35.8619 -104.602 
11.5221 4.82304 -6.88897 
-11.7033 6.02465 2.60641 
3.79107 -1.6466 4.11666 
312.974 145.474 -325.758 
288.849 173.881 -63.5712 
0.229151 -22.9742 -44.0892 
17.1014 -24.0381 -55.7705 
-11.3378 5.08709 -26.0856 
9.36349 -4.12183 -28.8452 
-5.16912 13.7203 -75.7376 
80.9627 17.952 -20.7052 
-13.6825 16.2979 -14.6948 
-4.08546 -6.31968 -58.0591 
2.01303 -0.923471 -14.3529 
120.688 19.378 81.1115 
30.7895 3.63685 -180.412 
-116.188 -83.0912 247.786 
250.54 -32.9331 -290.52 
49.8299 -59.3457 -795.473 
116.92 580.928 883.397 
249.697 -690.344 677.436 
0.227655 -7.67018 -50.5578 
8.72524 -5.26048 -8.09377 
5.83574 -2.05849 4.40754 
-1.37362 -3.97884 2.82503 
-0.470465 1.50207 -0.851237 
17.7271 29.2418 13.9975 
164.65 42.9856 562.816 
4.35783 0.243809 11.5245 
10.2728 10.8199 18.764 
-0.388378 1.86501 -38.0238 
-0.421727 2.03987 -4.71109 
-3.64133 -12.4133 -25.7416 
-5.14556 -49.7886 79.9038 
-2.67462 3.70091 -8.12682 
10.0034 12.575 -52.4788 
7.52338 -6.19534 6.05438 
8.32523 -9.86036 3.97355 
-2.10239 5.49431 -29.4493 
-9.44193 1.80359 13.2893 
0.544496 2.82668 -18.1253 
-23.2317 48.4386 -555.377 
330.637 -103.002 414.975 
435.96 -122.293 213.467 
-5.33231 12.1505 -9.17713 
-1.03814 -6.46698 -34.1248 
4.97043 -37.965 -61.5675 
-2.01474 -33.0495 -18.174 
4.38525 6.12853 -31.8158 
0.357054 -34.9856 -7.67393 
4.90759 16.4261 -9.42151 
-0.161348 -24.9205 -5.26403 
-13.4909 58.722 244.852 
-1.82529 5.32788 -22.2413 
2.63797 8.24264 11.6339 
0.617353 11.0168 -26.9396 
-2.46124 -2.0107 -36.589 
-6.90466 -13.9993 -69.2751 
-7.42927 5.2186 -36.6419 
14.0806 -3.7453 -18.7811 
5.17201 5.6006 -2.48842 
11.2104 11.8458 -55.4348 
-8.58039 9.88593 1.28686 
10.6976 8.36978 -9.44392 
-101.288 218.282 -620.2 
-0.36426 2.21854 -39.9719 
13.0507 38.3618 -39.1596 
-5.84405 33.8442 31.8649 
-9.36777 10.3636 -14.5933 
28.194 -8.01355 -17.3628 
53.0246 -8.20623 -0.348543 
113.473 74.7123 -118.293 
-3.34066 3.20177 -169.76 
38.1387 -42.3052 -174.649 
-36.1765 55.3248 -68.8861 
1.67788 1.05471 -5.90927 
-85.4142 -253.922 117.682 
-48.454 -53.5414 -18.8769 
-10.9452 23.2073 2.08994 
1062.71 -215.879 312.701 
1036.67 -292.985 224.695 
-81.3205 -180.276 35.3773 
41.3743 -39.8731 44.9234 
-127.762 -58.4073 34.0068 
-54.3042 -98.1058 95.8506 
-3.45056 -2.49046 11.6787 
-198.695 229.818 -221.249 
105.085 -81.4418 34.3602 
50.546 -62.0595 45.3916 
26.0006 -55.2828 -11.3401 
-0.969107 -1.82072 -3.93791 
2.81848 9.3434 0.402291 
6.45455 24.61 -39.5664 
32.5166 36.1073 -13.112 
7.96523 -1.01246 35.6626 
-2.73886 -1.678 -16.7357 
5.09866 -12.93 -13.7044 
-7.66215 -0.648826 -6.44379 
3.25828 -1.40878 1.58749 
-1.19863 -12.064 -50.1263 
-16.2121 76.8035 226.909 
38.1073 134.336 105.903 
-3.23215 -13.7027 -43.0924 
-2.68586 -14.562 -71.1459 
0.778256 2.00622 -4.57519 
-187.981 113.682 520.944 
-2.15204 87.2054 102.922 
0.961522 73.2823 -191.858 
30.7932 -94.8963 -57.2376 
0.793741 -55.161 -202.172 
0.028019 10.2343 -21.0863 
-1.44755 0.458325 -17.2412 
0.189062 0.78457 1.53667 
3.54955 5.95326 -37.1946 
3.80595 -6.31218 -13.5638 
0.0898962 14.7681 26.0908 
-3.73949 -2.75651 -13.7592 
-14.0883 -45.2809 -10.2257 
21.4148 -123.38 249.122 
-5.46314 4.32731 -13.5816 
-0.183077 -32.2855 -78.8388 
3.49736 1.45027 -8.32194 
0.684411 -11.999 -14.258 
9.79703 4.90475 -20.0621 
-31.1201 -17.2623 57.626 
11.7919 -6.18574 -10.6398 
-300.326 -108.738 25.805 
-218.448 -37.5555 -439.385 
-27.827 -10.8345 22.577 
3.47641 15.6717 130.385 
0.072187 7.5464 -5.37972 
-3.06 -7.47992 16.5755 
2.57596 5.24753 -10.8606 
-12.3964 -4.85774 16.2702 
2.49883 -8.82335 -13.341 
-1.7845 -1.7292 -25.285 
10.7917 3.60298 -18.9142 
-8.73347 4.63935 16.7878 
-3.54899 17.597 -7.84534 
22.061 -54.3838 -43.9939 
48.3323 -34.5263 -14.0452 
-5.57407 5.31465 -14.5225 
-1.54695 -4.28499 -2.66161 
-47.4029 -91.7286 -132.475 
-2.16093 -4.211 -53.2523 
3.06641 5.02651 11.4778 
-6.83076 -5.65915 -20.6426 
-2.00587 2.46502 -17.6927 
16.8398 13.1942 -51.4552 
3.19565 1.61813 1.93958 
9.64532 15.9055 -17.928 
-8.56759 -10.4022 -1.77349 
-0.620257 0.147616 -1.4344 
3.37281 26.1139 -39.9525 
-156.832 -5.53238 -229.239 
6.40253 -76.4067 -102.36 
11.7696 0.0860068 -38.5227 
-0.538049 -0.527754 -3.39917 
-14.3388 0.404815 -20.5243 
-10.8145 -0.602469 -9.05376 
2.3477 -1.35187 7.87205 
-0.206312 0.743374 -2.06173 
2.65477 5.54048 15.7414 
7.00319 6.97035 19.2973 
1.31561 5.05734 0.389978 
2.5326 -6.65052 5.46666 
19.101 9.93617 -16.4214 
-61.631 10.3088 -47.4324 
3.27718 -5.31602 -3.67113 
-7.7329 7.67987 -27.6653 
-101.347 -402.166 1237.18 
29.1088 230.324 -464.861 
27.222 27.3506 -39.2107 
2.43429 1.56877 -9.93463 
-3.49274 -5.83432 3.16239 
-0.733804 0.139264 -2.15905 
-0.102297 0.0457992 -0.167841 
7.2966 9.0495 -11.181 
5.16979 -4.49531 5.22798 
9.43084 -23.2373 -32.4579 
-23.6612 -60.1472 47.1473 
-12.5069 93.5613 -65.3468 
16.4454 -52.4928 -38.2172 
7.13065 13.9817 -22.9904 
-3.41855 3.97272 -5.04793 
-0.958054 -0.752094 -13.2225 
-4.90935 2.45717 -10.2756 
-1.91363 13.8369 22.5888 
0.524728 -0.69864 -9.18475 
-1.7824 -0.59497 -1.82454 
-22.245 -41.388 119.543 
-9.82984 4.38332 -26.0972 
11.6626 2.35588 7.57857 
18.2575 4.83205 -12.4405 
-27.8827 -13.4204 5.94339 
-7.52801 5.04828 -19.1634 
-0.420301 -1.12752 -4.34718 
-14.6321 -3.60055 -27.2724 
-28.2667 -33.1832 -269.834 
-124.893 -11.2174 -685.794 
-0.950149 -1.2732 -9.76334 
-3.0942 1.2675 4.68867 
-0.658912 5.79708 -10.2626 
-55.7692 -11.212 -145.807 
-0.506249 3.60695 25.687 
4.41882 2.10788 -17.1085 
7.32878 4.05429 -19.5649 
-10.0598 -16.3655 -8.53512 
-2.3065 1.33965 11.8799 
-14.5716 12.0691 -3.71813 
53.4204 -26.3177 26.833 
-32.2269 37.2384 -57.6371 
12.8895 -9.6264 -31.7633 
-14.0841 9.70468 15.2601 
2.32953 -1.7112 -2.83341 
-53.8555 73.9216 290.998 
30.904 21.2676 -26.6038 
-13.1432 3.02033 38.6388 
9.03595 -2.0554 -21.405 
0.661395 -1.66714 -2.75943 
-1.1764 0.133193 -1.12443 
7.59419 0.712423 -8.77731 
-2.54876 23.943 -32.0405 
18.6975 -11.0324 12.0442 
10.214 -5.8503 -32.3506 
-2.22249 -1.59307 -7.24211 
10.4174 4.69658 -19.2517 
-3.32993 -3.66649 4.76739 
1.17974 -1.63189 -2.96317 
0.793023 -6.53775 -8.07391 
5.76481 -5.29323 -2.45345 
2.88301 5.10315 -11.2479 
24.0281 20.5269 -95.468 
-19.0759 -32.688 37.7421 
-4.42301 -3.73339 -45.382 
-11.7004 17.6844 -110.092 
43.0628 -5.93134 105.071 
-3.70556 -0.592929 1.53595 
6.90944 -2.55328 -15.9864 
-9.56209 3.15677 15.419 
3.79474 24.6793 -40.6099 
2.20728 9.62228 27.9881 
1.03525 4.22636 2.27108 
-16.7113 -14.9585 4.51968 
3.34976 15.4597 -14.7577 
1.79416 -13.0739 -13.094 
25.6679 27.4797 200.389 
-20.5675 -77.9687 -92.5441 
-39.4617 -2.63301 -12.0661 
-101.045 193.552 -65.9801 
31.1414 -41.7008 -8.50609 
0.984306 1.36736 3.16268 
3.29857 -0.936444 1.74322 
6.28918 -1.697 15.5962 
-133.178 0.977906 -146.066 
-2.64935 -5.4351 -6.7392 
-1.06592 -0.937334 1.00988 
5.88591 32.2297 -11.0276 
46.7647 77.9759 132.562 
18.3837 16.9333 -66.2604 
1.93404 -0.920787 -4.61917 
-0.0143397 15.1385 -2.73917 
14.0195 19.1158 -1.01457 
6.83783 2.37389 -8.89067 
-33.6574 -71.3697 57.0731 
-31.4205 92.7491 -163.723 
-13.8471 -45.0867 22.389 
0.115466 -1.63804 -6.04383 
-7.13498 22.1834 -2.43319 
1.18869 -1.32625 -14.2016 
-0.0386366 -0.694081 -4.33816 
1.55835 -0.588601 6.43657 
23.0305 -0.726327 -8.90918 
-7.86811 -1.43644 14.3112 
50.9653 2.05797 49.68 
22.9289 -8.11908 -79.427 
3.61773 2.17368 -1.68796 
-1.15935 -1.24337 23.1055 
754.875 -704.679 597.503 
19.2462 -4.4407 23.7757 
-23.6157 8.77762 -89.032 
-2.88074 0.660768 11.4965 
-104.81 5.01002 25.0986 
-2.62016 -47.7669 -24.6631 
0.452556 -0.0114378 3.69071 
-354.893 28.0465 -213.283 
-1.94766 -13.1929 -7.05459 
-13.4284 -4.60114 3.14533 
51.2535 27.3658 32.641 
-1.98725e-08 2.57683e-14 -2.02292e-08 
14.1138 21.0322 322.364 
13.8393 61.9674 12.4772 
-12.8411 69.0867 26.929 
7.08426 17.9069 -7.54868 
-4.94085 13.7596 2.22032 
0.53281 7.2103 12.6689 
2.67682 2.49864 0.866162 
-0.726549 20.8135 11.8512 
-10.0898 14.6477 0.675601 
-0.20201 -5.69214 0.101603 
1.60403 -13.2818 3.12504 
-11.5775 -471.079 -253.217 
-2.11936 -13.8289 4.48497 
0.0241827 0.184341 12.9073 
0.800355 -6.37171 14.32 
0.118561 0.731449 3.17952 
-7.46015 -25.2853 4.71242 
-2.54739 -1.71449 27.0375 
-30.3241 23.2953 116.252 
1.99641e-08 6.39376e-14 13.6117 
14.4528 29.3449 68.5702 
-1.24856e-14 4.57505e-15 13.6117 
-0.262551 3.21956 12.6784 
6.91714 -4.38738 16.2175 
-9.67159 -13.846 99.9431 
-30.9144 15.2637 -174.824 
3.13232 -0.828922 86.1244 
117.19 13.2063 210.712 
-46.8544 37.8598 254.193 
-3.72827 10.8524 74.9238 
15.8553 -13.3463 57.1721 
2.27863 0.622609 20.2202 
4.54689 0.562686 14.4322 
-18.1045 -14.5974 57.6169 
19.2566 22.2082 171.214 
9.16142 -11.7603 -0.130457 
-125.019 -37.6077 -199.718 
-1.68511 37.0096 56.5273 
32.7044 16.0898 62.3831 
-13.7665 -10.7142 35.8847 
-0.777523 3.31645 32.3739 
-13.3777 -4.65932 99.0587 
-11.112 9.49449 21.3281 
-20.5031 -36.7622 60.9566 
-10.5201 17.5135 26.8142 
13.2994 -35.6537 219.747 
25.0001 -14.8577 143.472 
-113.067 -16.2063 -75.695 
-19.3387 158.349 -204.758 
200.288 186.725 466.801 
5.48969e-14 4.17161e-14 13.6117 
46.0795 12.452 96.8129 
-0.0446407 2.75501 31.5974 
-6.65893 -130.631 -128.962 
-7.64852 -659.542 269.378 
7.99207 -2.88379 24.8257 
-1.90136 -4.5494 28.8841 
53.6725 -45.2743 131.431 
-88.9069 -20.7082 53.2803 
1.26546 0.246576 12.7259 
-94.3781 -169.972 -245.248 
-133.376 108.13 -224.827 
-4.18883 -326.638 -415.28 
5.91814 7.29394 85.9359 
1.06165 -1.65946 13.0357 
2.43034e-06 1.81874e-06 13.6117 
2.17899 3.9891 37.4555 
VECTORS moment double
0 0 0 
0 0 0 
0 0 0 
0 0 0 
0 0 0 
0 0 0 
0 0 0 
0 0 0 
0 0 0 
0 0 0 
0 0 0 
0 0 0 
0 0 0 
0 0 0 
0 0 0 
0 0 0 
0 0 0 
0 0 0 
0 0 0 
0 0 0 
0 0 0 
0 0 0 
0 0 0 
0 0 0 
0 0 0 
0 0 0 
0 0 0 
0 0 0 
0 0 0 
0 0 0 
0 0 0 
0 0 0 
0 0 0 
0 0 0 
0 0 0 
0 0 0 
0 0 0 
0 0 0 
0 0 0 
0 0 0 
0 0 0 
0 0 0 
0 0 0 
0 0 0 
0 0 0 
0 0 0 
0 0 0 
0 0 0 
0 0 0 
0 0 0 
0 0 0 
0 0 0 
0 0 0 
0 0 0 
0 0 0 
0 0 0 
0 0 0 
0 0 0 
0 0 0 
0 0 0 
0 0 0 
0 0 0 
0 0 0 
0 0 0 
0 0 0 
0 0 0 
0 0 0 
0 0 0 
0 0 0 
0 0 0 
0 0 0 
0 0 0 
0 0 0 
0 0 0 
0 0 0 
0 0 0 
0 0 0 
0 0 0 
0 0 0 
0 0 0 
0 0 0 
0 0 0 
0 0 0 
0 0 0 
0 0 0 
0 0 0 
0 0 0 
0 0 0 
0 0 0 
0 0 0 
0 0 0 
0 0 0 
0 0 0 
0 0 0 
0 0 0 
0 0 0 
0 0 0 
0 0 0 
0 0 0 
0 0 0 
0 0 0 
0 0 0 
0 0 0 
0 0 0 
0 0 0 
0 0 0 
0 0 0 
0 0 0 
0 0 0 
0 0 0 
0 0 0 
0 0 0 
0 0 0 
0 0 0 
0 0 0 
0 0 0 
0 0 0 
0 0 0 
0 0 0 
0 0 0 
0 0 0 
0 0 0 
0 0 0 
0 0 0 
0 0 0 
0 0 0 
0 0 0 
0 0 0 
0 0 0 
0 0 0 
0 0 0 
0 0 0 
0 0 0 
0 0 0 
0 0 0 
0 0 0 
0 0 0 
0 0 0 
0 0 0 
0 0 0 
0 0 0 
0 0 0 
0 0 0 
0 0 0 
0 0 0 
0 0 0 
0 0 0 
0 0 0 
0 0 0 
0 0 0 
0 0 0 
0 0 0 
0 0 0 
0 0 0 
0 0 0 
0 0 0 
0 0 0 
0 0 0 
0 0 0 
0 0 0 
0 0 0 
0 0 0 
0 0 0 
0 0 0 
0 0 0 
0 0 0 
0 0 0 
0 0 0 
0 0 0 
0 0 0 
0 0 0 
0 0 0 
0 0 0 
0 0 0 
0 0 0 
0 0 0 
0 0 0 
0 0 0 
0 0 0 
0 0 0 
0 0 0 
0 0 0 
0 0 0 
0 0 0 
0 0 0 
0 0 0 
0 0 0 
0 0 0 
0 0 0 
0 0 0 
0 0 0 
0 0 0 
0 0 0 
0 0 0 
0 0 0 
0 0 0 
0 0 0 
0 0 0 
0 0 0 
0 0 0 
0 0 0 
0 0 0 
0 0 0 
0 0 0 
0 0 0 
0 0 0 
0 0 0 
0 0 0 
0 0 0 
0 0 0 
0 0 0 
0 0 0 
0 0 0 
0 0 0 
0 0 0 
0 0 0 
0 0 0 
0 0 0 
0 0 0 
0 0 0 
0 0 0 
0 0 0 
0 0 0 
0 0 0 
0 0 0 
0 0 0 
0 0 0 
0 0 0 
0 0 0 
0 0 0 
0 0 0 
0 0 0 
0 0 0 
0 0 0 
0 0 0 
0 0 0 
0 0 0 
0 0 0 
0 0 0 
0 0 0 
0 0 0 
0 0 0 
0 0 0 
0 0 0 
0 0 0 
0 0 0 
0 0 0 
0 0 0 
0 0 0 
0 0 0 
0 0 0 
0 0 0 
0 0 0 
0 0 0 
0 0 0 
0 0 0 
0 0 0 
0 0 0 
0 0 0 
0 0 0 
0 0 0 
0 0 0 
0 0 0 
0 0 0 
0 0 0 
0 0 0 
0 0 0 
0 0 0 
0 0 0 
0 0 0 
0 0 0 
0 0 0 
0 0 0 
0 0 0 
0 0 0 
0 0 0 
0 0 0 
0 0 0 
0 0 0 
0 0 0 
0 0 0 
0 0 0 
0 0 0 
0 0 0 
0 0 0 
0 0 0 
0 0 0 
0 0 0 
0 0 0 
0 0 0 
0 0 0 
0 0 0 
0 0 0 
0 0 0 
0 0 0 
0 0 0 
0 0 0 
0 0 0 
0 0 0 
0 0 0 
0 0 0 
0 0 0 
0 0 0 
0 0 0 
0 0 0 
0 0 0 
0 0 0 
0 0 0 
0 0 0 
0 0 0 
0 0 0 
0 0 0 
0 0 0 
0 0 0 
0 0 0 
0 0 0 
0 0 0 
0 0 0 
0 0 0 
0 0 0 
0 0 0 
0 0 0 
0 0 0 
0 0 0 
0 0 0 
0 0 0 
0 0 0 
0 0 0 
0 0 0 
0 0 0 
0 0 0 
0 0 0 
0 0 0 
0 0 0 
0 0 0 
0 0 0 
0 0 0 
0 0 0 
0 0 0 
0 0 0 
0 0 0 
0 0 0 
0 0 0 
0 0 0 
0 0 0 
0 0 0 
0 0 0 
0 0 0 
0 0 0 
0 0 0 
0 0 0 
0 0 0 
0 0 0 
0 0 0 
0 0 0 
0 0 0 
0 0 0 
0 0 0 
0 0 0 
0 0 0 
0 0 0 
0 0 0 
0 0 0 
0 0 0 
0 0 0 
0 0 0 
0 0 0 
0 0 0 
0 0 0 
0 0 0 
0 0 0 
0 0 0 
0 0 0 
0 0 0 
0 0 0 
0 0 0 
0 0 0 
0 0 0 
0 0 0 
0 0 0 
0 0 0 
0 0 0 
0 0 0 
0 0 0 
0 0 0 
0 0 0 
0 0 0 
0 0 0 
0 0 0 
0 0 0 
0 0 0 
0 0 0 
0 0 0 
0 0 0 
0 0 0 
0 0 0 
0 0 0 
0 0 0 
0 0 0 
0 0 0 
0 0 0 
0 0 0 
0 0 0 
0 0 0 
0 0 0 
0 0 0 
0 0 0 
0 0 0 
0 0 0 
0 0 0 
0 0 0 
0 0 0 
0 0 0 
0 0 0 
0 0 0 
0 0 0 
0 0 0 
0 0 0 
0 0 0 
0 0 0 
0 0 0 
0 0 0 
0 0 0 
0 0 0 
0 0 0 
0 0 0 
0 0 0 
0 0 0 
0 0 0 
0 0 0 
0 0 0 
0 0 0 
0 0 0 
0 0 0 
0 0 0 
0 0 0 
0 0 0 
0 0 0 
SCALARS num_collisions int 1
LOOKUP_TABLE default
1 
1 
1 
1 
1 
1 
1 
1 
1 
1 
1 
1 
1 
1 
1 
1 
1 
1 
1 
1 
1 
1 
1 
1 
1 
1 
1 
1 
1 
1 
1 
1 
1 
1 
1 
1 
1 
1 
1 
1 
1 
1 
1 
1 
1 
1 
1 
1 
1 
1 
1 
1 
1 
1 
1 
1 
1 
1 
1 
1 
1 
1 
1 
1 
1 
1 
1 
1 
1 
1 
1 
1 
1 
1 
1 
1 
1 
1 
1 
1 
1 
1 
1 
1 
1 
1 
1 
1 
1 
1 
1 
1 
1 
1 
1 
1 
1 
1 
1 
1 
1 
1 
1 
1 
1 
1 
1 
1 
1 
1 
1 
1 
1 
1 
1 
1 
1 
1 
1 
1 
1 
1 
1 
1 
1 
1 
1 
1 
1 
1 
1 
1 
1 
1 
1 
1 
1 
1 
1 
1 
1 
1 
1 
1 
1 
1 
1 
1 
1 
1 
1 
1 
1 
1 
1 
1 
1 
1 
1 
1 
1 
1 
1 
1 
1 
1 
1 
1 
1 
1 
1 
1 
1 
1 
1 
1 
1 
1 
1 
1 
1 
1 
1 
1 
1 
1 
1 
1 
1 
1 
1 
1 
1 
1 
1 
1 
1 
1 
1 
1 
1 
1 
1 
1 
1 
1 
1 
1 
1 
1 
1 
1 
1 
1 
1 
1 
1 
1 
1 
1 
1 
1 
1 
1 
1 
1 
1 
1 
1 
1 
1 
1 
1 
1 
1 
1 
1 
1 
1 
1 
1 
1 
1 
1 
1 
1 
1 
1 
1 
1 
1 
1 
1 
1 
1 
1 
1 
1 
1 
1 
1 
1 
1 
1 
1 
1 
1 
1 
1 
1 
1 
1 
1 
1 
1 
1 
1 
1 
1 
1 
1 
1 
1 
1 
1 
1 
1 
1 
1 
1 
1 
1 
1 
1 
1 
1 
1 
1 
1 
1 
1 
1 
1 
1 
1 
1 
1 
1 
1 
1 
1 
1 
1 
1 
1 
1 
1 
1 
1 
1 
1 
1 
1 
1 
1 
1 
1 
1 
1 
1 
1 
1 
1 
1 
1 
1 
1 
1 
1 
1 
1 
1 
1 
1 
1 
1 
1 
1 
1 
1 
1 
1 
1 
1 
1 
1 
1 
1 
1 
1 
1 
1 
1 
1 
1 
1 
1 
1 
1 
1 
1 
1 
1 
1 
1 
1 
1 
1 
1 
1 
1 
1 
1 
1 
1 
1 
1 
1 
1 
1 
1 
1 
1 
1 
1 
1 
1 
1 
1 
1 
1 
1 
1 
1 
1 
1 
1 
1 
1 
1 
1 
1 
1 
1 
1 
1 
1 
1 
1 
1 
1 
1 
1 
1 
1 
1 
1 
1 
1 
1 
1 
1 
1 
1 
1 
1 
1 
1 
VECTORS pos double
-0.410384 -0.412477 -0.426325 
-0.44888 -0.229559 -0.409259 
-0.434345 -0.158451 -0.426864 
-0.384084 0.029027 -0.435355 
-0.386702 -0.0257831 -0.423886 
-0.410576 0.091069 -0.428294 
-0.447433 0.400107 -0.450029 
-0.445077 0.313236 -0.416555 
-0.449391 0.366976 -0.40298 
-0.300695 -0.419152 -0.440117 
-0.263389 -0.445021 -0.409936 
-0.314346 -0.208007 -0.400604 
-0.270211 -0.18556 -0.429351 
-0.16232 -0.0323182 -0.420279 
-0.20967 -0.00774155 -0.40221 
-0.181058 0.117738 -0.46571 
-0.210616 0.186967 -0.421432 
-0.301295 0.360704 -0.428146 
-0.222085 0.338627 -0.4446 
-0.0779662 -0.383481 -0.433958 
-0.137327 -0.094798 -0.420274 
-0.00582296 -0.0859442 -0.445657 
-0.0364281 -0.0504592 -0.421955 