# vtk DataFile Version 2.0
Generated by NetDEM
ASCII 
DATASET POLYDATA
POINTS 456 double
-0.416839 -0.405418 -0.464172 
-0.403619 -0.399446 -0.391268 
-0.403333 -0.203333 -0.472458 
-0.403333 -0.203333 -0.394723 
-0.408413 -0.00759814 -0.462905 
-0.399778 -0.0083327 -0.387458 
-0.402763 0.397237 -0.472454 
-0.402763 0.397237 -0.394713 
-0.265147 -0.431054 -0.459034 
-0.306073 -0.409013 -0.390137 
-0.203538 -0.203538 -0.472454 
-0.203538 -0.203538 -0.394715 
-0.203218 -0.00321788 -0.47246 
-0.203218 -0.00321788 -0.394727 
-0.246887 0.369117 -0.465047 
-0.157519 0.41908 -0.446531 
-0.0419593 -0.39798 -0.457245 
-0.0608311 -0.399629 -0.382932 
-0.00366947 -0.203669 -0.472455 
-0.00366947 -0.203669 -0.394717 
-0.00360232 -0.00360232 -0.472454 
-0.00360232 -0.00360232 -0.394716 
-0.0418743 0.396565 -0.463929 
-0.102081 0.444857 -0.369283 
0.191674 -0.398252 -0.46441 
0.195354 -0.397064 -0.393024 
0.171557 -0.208072 -0.462936 
0.171522 -0.186155 -0.386541 
0.174034 -0.00946642 -0.461991 
0.188162 -0.0101922 -0.383689 
0.315378 0.415712 -0.39976 
0.320106 0.320252 -0.370708 
0.315378 0.415712 -0.39976 
0.370245 0.438518 -0.465085 
0.315378 0.415712 -0.39976 
0.399073 0.454156 -0.332871 
0.399442 -0.400821 -0.450037 
0.400835 -0.349713 -0.364124 
0.399442 -0.400821 -0.450037 
0.397142 -0.450012 -0.363011 
0.385593 0.0906383 -0.45001 
0.416204 0.032598 -0.374553 
-0.403619 -0.399446 -0.391268 
-0.404035 -0.403387 -0.320359 
-0.403333 -0.203333 -0.394723 
-0.403333 -0.203333 -0.316995 
-0.399778 -0.0083327 -0.387458 
-0.367274 0.00524438 -0.313218 
-0.402763 0.397237 -0.394713 
-0.402763 0.397237 -0.31698 
-0.203538 -0.203538 -0.394715 
-0.203538 -0.203538 -0.316986 
-0.203218 -0.00321788 -0.394727 
-0.203218 -0.00321788 -0.317003 
-0.157519 0.41908 -0.446531 
-0.21423 0.453782 -0.389311 
-0.0608311 -0.399629 -0.382932 
-0.149314 -0.427642 -0.377532 
-0.0608311 -0.399629 -0.382932 
0.0267692 -0.430051 -0.346295 
-0.0608311 -0.399629 -0.382932 
-0.056058 -0.358383 -0.295004 
-0.00366947 -0.203669 -0.394717 
-0.00366947 -0.203669 -0.316988 
-0.00360232 -0.00360232 -0.394716 
-0.00360232 -0.00360232 -0.316987 
0.0059808 0.256891 -0.446172 
0.0481301 0.346823 -0.441466 
0.0059808 0.256891 -0.446172 
-0.0385211 0.255143 -0.365823 
0.195354 -0.397064 -0.393024 
0.18762 -0.40004 -0.319533 
0.171522 -0.186155 -0.386541 
0.118447 -0.135866 -0.332668 
0.188162 -0.0101922 -0.383689 
0.189632 0.00763505 -0.31073 
0.306203 0.424798 -0.280884 
0.399073 0.454156 -0.332871 
-0.404035 -0.403387 -0.320359 
-0.418906 -0.409723 -0.249735 
-0.403333 -0.203333 -0.316995 
-0.403333 -0.203333 -0.239265 
-0.367274 0.00524438 -0.313218 
-0.353514 0.0200165 -0.239418 
-0.192709 0.298827 -0.36399 
-0.111101 0.352951 -0.348313 
-0.402763 0.397237 -0.31698 
-0.402763 0.397237 -0.239245 
-0.180657 -0.365599 -0.454269 
-0.149314 -0.427642 -0.377532 
-0.203538 -0.203538 -0.316986 
-0.203538 -0.203538 -0.239256 
-0.203218 -0.00321788 -0.317003 
-0.203218 -0.00321788 -0.239278 
-0.176746 0.191433 -0.38101 
-0.10096 0.171672 -0.389196 
-0.21423 0.453782 -0.389311 
-0.282883 0.443601 -0.327309 
0.0267692 -0.430051 -0.346295 
0.0975557 -0.43826 -0.291404 
0.0267692 -0.430051 -0.346295 
0.0362259 -0.37544 -0.272584 
-0.00366947 -0.203669 -0.316988 
-0.00366947 -0.203669 -0.239258 
-0.00360232 -0.00360232 -0.316987 
-0.00360232 -0.00360232 -0.239257 
-0.0385211 0.255143 -0.365823 
-0.0302866 0.212691 -0.297548 
0.18762 -0.40004 -0.319533 
0.238423 -0.303943 -0.242945 
0.18762 -0.40004 -0.319533 
0.217757 -0.400636 -0.233102 
0.18762 -0.40004 -0.319533 
0.0975557 -0.43826 -0.291404 
0.189632 0.00763505 -0.31073 
0.191847 0.00792915 -0.237737 
0.448872 0.233898 -0.361603 
0.40838 0.166618 -0.299697 
0.448872 0.233898 -0.361603 
0.439274 0.260797 -0.456774 
-0.418906 -0.409723 -0.249735 
-0.420903 -0.412388 -0.16249 
-0.403333 -0.203333 -0.239265 
-0.403333 -0.203333 -0.161498 
-0.353514 0.0200165 -0.239418 
-0.380581 0.00224681 -0.161147 
-0.402763 0.397237 -0.239245 
-0.402763 0.397237 -0.161474 
-0.149314 -0.427642 -0.377532 
-0.242204 -0.400315 -0.332552 
-0.203538 -0.203538 -0.239256 
-0.203538 -0.203538 -0.161489 
-0.203218 -0.00321788 -0.239278 
-0.203218 -0.00321788 -0.161513 
-0.00366947 -0.203669 -0.239258 
-0.00366947 -0.203669 -0.161491 
-0.00360232 -0.00360232 -0.239257 
-0.00360232 -0.00360232 -0.16149 
0.217757 -0.400636 -0.233102 
0.210847 -0.402492 -0.162525 
0.191847 0.00792915 -0.237737 
0.18408 0.00370641 -0.165486 
0.25414 0.174905 -0.426536 
0.211824 0.21195 -0.358406 
0.384707 -0.323237 -0.268818 
0.397072 -0.251543 -0.200216 
0.450007 -0.101255 -0.298727 
0.394502 -0.159592 -0.239431 
0.320106 0.320252 -0.370708 
0.330379 0.241022 -0.310756 
-0.420903 -0.412388 -0.16249 
-0.418958 -0.406383 -0.0877844 
-0.403333 -0.203333 -0.161498 
-0.403333 -0.203333 -0.0836202 
-0.402763 0.397237 -0.161474 
-0.402763 0.397237 -0.0835944 
-0.242204 -0.400315 -0.332552 
-0.161387 -0.413925 -0.280342 
-0.203538 -0.203538 -0.161489 
-0.203538 -0.203538 -0.0836121 
-0.203218 -0.00321788 -0.161513 
-0.203218 -0.00321788 -0.0836344 
-0.00366947 -0.203669 -0.161491 
-0.00366947 -0.203669 -0.0836141 
-0.00360232 -0.00360232 -0.16149 
-0.00360232 -0.00360232 -0.0836131 
-0.0302866 0.212691 -0.297548 
0.0132876 0.204719 -0.233485 
-0.102081 0.444857 -0.369283 
-0.111101 0.352951 -0.348313 
0.210847 -0.402492 -0.162525 
0.209915 -0.399645 -0.0830294 
0.238423 -0.303943 -0.242945 
0.212668 -0.240464 -0.177087 
0.18408 0.00370641 -0.165486 
0.181062 -0.000817542 -0.0873455 
0.211824 0.21195 -0.358406 
0.20207 0.180939 -0.279163 
0.366883 0.449639 -0.191762 
0.429029 0.410732 -0.261503 
0.366883 0.449639 -0.191762 
0.39862 0.436227 -0.104281 
0.399073 0.454156 -0.332871 
0.429029 0.410732 -0.261503 
-0.418958 -0.406383 -0.0877844 
-0.413256 -0.403782 -0.0109398 
-0.403333 -0.203333 -0.0836202 
-0.403333 -0.203333 -0.00553299 
-0.402763 0.397237 -0.0835944 
-0.402763 0.397237 -0.0055077 
-0.203538 -0.203538 -0.0836121 
-0.203538 -0.203538 -0.00552639 
-0.203218 -0.00321788 -0.0836344 
-0.203218 -0.00321788 -0.00554487 
-0.195806 0.35266 -0.281949 
-0.111101 0.352951 -0.348313 
-0.195806 0.35266 -0.281949 
-0.208277 0.402602 -0.228857 
-0.00366947 -0.203669 -0.0836141 
-0.00366947 -0.203669 -0.00552833 
-0.00360232 -0.00360232 -0.0836131 
-0.00360232 -0.00360232 -0.00552739 
0.0132876 0.204719 -0.233485 
0.0252111 0.192705 -0.163432 
0.209915 -0.399645 -0.0830294 
0.173261 -0.415992 -0.0227772 
0.212668 -0.240464 -0.177087 
0.188101 -0.192638 -0.117512 
0.181062 -0.000817542 -0.0873455 
0.188001 -0.00342647 -0.00865371 
0.394502 -0.159592 -0.239431 
0.389383 -0.0998389 -0.159452 
0.394502 -0.159592 -0.239431 
0.397072 -0.251543 -0.200216 
0.429029 0.410732 -0.261503 
0.399607 0.323921 -0.232975 
-0.413256 -0.403782 -0.0109398 
-0.406681 -0.406413 0.0666187 
-0.403333 -0.203333 -0.00553299 
-0.403333 -0.203333 0.0728507 
-0.402763 0.397237 -0.0055077 
-0.402763 0.397237 0.072875 
-0.203538 -0.203538 -0.00552639 
-0.203538 -0.203538 0.072855 
-0.203218 -0.00321788 -0.00554487 
-0.203218 -0.00321788 0.0728408 
-0.208277 0.402602 -0.228857 
-0.176285 0.420339 -0.148592 
-0.00366947 -0.203669 -0.00552833 
-0.00366947 -0.203669 0.0728533 
-0.00360232 -0.00360232 -0.00552739 
-0.00360232 -0.00360232 0.072854 
0.173261 -0.415992 -0.0227772 
0.180624 -0.411439 0.0745815 
0.188101 -0.192638 -0.117512 
0.180656 -0.180653 -0.0295547 
0.188001 -0.00342647 -0.00865371 
0.195554 -0.00925215 0.0666352 
0.20207 0.180939 -0.279163 
0.209262 0.147393 -0.20547 
0.389383 -0.0998389 -0.159452 
0.398775 -0.0435872 -0.0773608 
0.399607 0.323921 -0.232975 
0.35697 0.237226 -0.207515 
-0.406681 -0.406413 0.0666187 
-0.392001 -0.405056 0.145643 
-0.403333 -0.203333 0.0728507 
-0.403333 -0.203333 0.151587 
-0.402763 0.397237 0.072875 
-0.402763 0.397237 0.151611 
-0.203538 -0.203538 0.072855 
-0.203538 -0.203538 0.151589 
-0.203218 -0.00321788 0.0728408 
-0.203218 -0.00321788 0.151579 
-0.13565 0.195111 -0.0643008 
-0.159682 0.16856 0.0266127 
-0.13565 0.195111 -0.0643008 
-0.0424074 0.224185 -0.094112 
-0.176285 0.420339 -0.148592 
-0.211512 0.397803 -0.0838764 
-0.00366947 -0.203669 0.0728533 
-0.00366947 -0.203669 0.151588 
-0.00360232 -0.00360232 0.072854 
-0.00360232 -0.00360232 0.151588 
0.180624 -0.411439 0.0745815 
0.18953 -0.403943 0.14446 
0.180656 -0.180653 -0.0295547 
0.199346 -0.190668 0.0576691 
0.195554 -0.00925215 0.0666352 
0.196077 -0.0160101 0.139597 
0.209262 0.147393 -0.20547 
0.184095 0.204822 -0.140135 
0.35697 0.237226 -0.207515 
0.412612 0.208149 -0.129735 
0.39862 0.436227 -0.104281 
0.399103 0.397788 -0.0372922 
-0.392001 -0.405056 0.145643 
-0.378158 -0.400583 0.216421 
-0.403333 -0.203333 0.151587 
-0.403333 -0.203333 0.230694 
-0.402763 0.397237 0.151611 
-0.402763 0.397237 0.230717 
-0.203538 -0.203538 0.151589 
-0.203538 -0.203538 0.230693 
-0.203218 -0.00321788 0.151579 
-0.203218 -0.00321788 0.230688 
-0.159682 0.16856 0.0266127 
-0.192637 0.192705 0.113955 
-0.211512 0.397803 -0.0838764 
-0.205066 0.386509 0.00601062 
-0.00366947 -0.203669 0.151588 
-0.00366947 -0.203669 0.230692 
-0.00360232 -0.00360232 0.151588 
-0.00360232 -0.00360232 0.230693 
0.18953 -0.403943 0.14446 
0.20719 -0.392637 0.218092 
0.196077 -0.0160101 0.139597 
0.193521 -0.0121843 0.220723 
0.398775 -0.0435872 -0.0773608 
0.396104 0.0139331 0.00434192 
0.399103 0.397788 -0.0372922 
0.394567 0.398642 0.0487462 
-0.378158 -0.400583 0.216421 
-0.397328 -0.394542 0.286603 
-0.403333 -0.203333 0.469852 
-0.403333 -0.203333 0.389896 
-0.402763 0.397237 0.469859 
-0.402763 0.397237 0.389911 
-0.203538 -0.203538 0.469851 
-0.203538 -0.203538 0.389894 
-0.203218 -0.00321788 0.469851 
-0.203218 -0.00321788 0.389894 
-0.192637 0.192705 0.113955 
-0.20699 0.201037 0.20279 
-0.205066 0.386509 0.00601062 
-0.200885 0.400621 0.0850313 
-0.00366947 -0.203669 0.46985 
-0.00366947 -0.203669 0.389893 
-0.00360232 -0.00360232 0.46985 
-0.00360232 -0.00360232 0.389894 
0.193521 -0.0121843 0.220723 
0.190933 -0.00210352 0.294864 
-0.397328 -0.394542 0.286603 
-0.439969 -0.428506 0.337088 
-0.403333 -0.203333 0.230694 
-0.403333 -0.203333 0.31015 
-0.402763 0.397237 0.230717 
-0.402763 0.397237 0.310169 
-0.203538 -0.203538 0.230693 
-0.203538 -0.203538 0.310147 
-0.203218 -0.00321788 0.230688 
-0.203218 -0.00321788 0.310145 
-0.200885 0.400621 0.0850313 
-0.202518 0.39476 0.178434 
-0.00366947 -0.203669 0.230692 
-0.00366947 -0.203669 0.310146 
-0.00360232 -0.00360232 0.230693 
-0.00360232 -0.00360232 0.310147 
-0.0174825 0.197307 0.157946 
0.0893701 0.205799 0.18101 
-0.439969 -0.428506 0.337088 
-0.428016 -0.390844 0.429608 
-0.403333 -0.203333 0.31015 
-0.403333 -0.203333 0.389896 
-0.402763 0.397237 0.310169 
-0.402763 0.397237 0.389911 
-0.203538 -0.203538 0.310147 
-0.203538 -0.203538 0.389894 
-0.203218 -0.00321788 0.310145 
-0.203218 -0.00321788 0.389894 
-0.00366947 -0.203669 0.310146 
-0.00366947 -0.203669 0.389893 
-0.00360232 -0.00360232 0.310147 
-0.00360232 -0.00360232 0.389894 
0.20386 -0.399198 0.373516 
0.178045 -0.404169 0.4495 
0.439274 0.260797 -0.456774 
0.500002 0.24145 -0.456353 
0.450007 -0.101255 -0.298727 
0.5 -0.101252 -0.298705 
0.397142 -0.450012 -0.363011 
0.397138 -0.5 -0.363014 
-0.102081 0.444857 -0.369283 
-0.0977833 0.500011 -0.344365 
0.399073 0.454156 -0.332871 
0.411125 0.500016 -0.355325 
-0.21423 0.453782 -0.389311 
-0.221644 0.500005 -0.385842 
-0.203218 -0.00321788 -0.47246 
-0.203218 -0.00321788 -0.5 
0.174034 -0.00946642 -0.461991 
0.214341 0.000215905 -0.500187 
0.399442 -0.400821 -0.450037 
0.399432 -0.400822 -0.5 
-0.402763 0.397237 -0.472454 
-0.402763 0.397237 -0.5 
-0.180657 -0.365599 -0.454269 
-0.191784 -0.364046 -0.500017 
0.359419 -0.0201093 -0.450008 
0.359442 -0.0201234 -0.5 
-0.408413 -0.00759814 -0.462905 
-0.395055 -0.00931759 -0.500021 
-0.416839 -0.405418 -0.464172 
-0.379728 -0.409175 -0.500704 
0.0059808 0.256891 -0.446172 
-0.0109663 0.22375 -0.500003 
0.191674 -0.398252 -0.46441 
0.205999 -0.401127 -0.500561 
-0.157519 0.41908 -0.446531 
-0.136194 0.406163 -0.500006 
-0.0418743 0.396565 -0.463929 
-0.0541082 0.404011 -0.500014 
-0.246887 0.369117 -0.465047 
-0.23711 0.36833 -0.500002 
0.422624 0.347378 -0.453794 
0.418166 0.355463 -0.500002 
-0.449983 0.152107 -0.450007 
-0.449983 0.152128 -0.5 
0.233156 0.352612 -0.456973 
0.223383 0.377388 -0.500002 
-0.0419593 -0.39798 -0.457245 
-0.0191256 -0.387042 -0.500037 
-0.301665 0.160801 -0.465044 
-0.310627 0.160212 -0.500003 
0.439274 0.260797 -0.456774 
0.399411 0.279913 -0.500005 
0.0481301 0.346823 -0.441466 
0.0555091 0.347412 -0.500004 
-0.00366947 -0.203669 -0.472455 
-0.00366947 -0.203669 -0.5 
-0.203538 -0.203538 -0.472454 
-0.203538 -0.203538 -0.5 
0.322269 -0.156984 -0.450007 
0.322306 -0.156963 -0.5 
-0.00360232 -0.00360232 -0.472454 
-0.00360232 -0.00360232 -0.5 
-0.171223 0.202363 -0.461314 
-0.181324 0.225638 -0.500003 
0.274714 0.0662832 -0.443471 
0.294865 0.052868 -0.500001 
0.0311775 0.188152 -0.4534 
0.022719 0.189618 -0.500003 
0.159355 0.210264 -0.465044 
0.163231 0.218366 -0.500003 
0.197471 0.112209 -0.455757 
0.208835 0.144489 -0.500007 
0.0382268 0.449347 -0.440851 
0.0503241 0.45217 -0.500002 
0.171557 -0.208072 -0.462936 
0.165786 -0.175403 -0.500007 
0.385593 0.0906383 -0.45001 
0.385598 0.0906291 -0.5 
0.370245 0.438518 -0.465085 
0.349903 0.447334 -0.500041 
-0.403333 -0.203333 -0.472458 
-0.403333 -0.203333 -0.5 
0.406849 -0.296684 -0.450007 
0.406847 -0.296682 -0.5 
-0.265147 -0.431054 -0.459034 
-0.26074 -0.419201 -0.500012 
-0.203218 -0.00321788 0.469851 
-0.203218 -0.00321788 0.5 
-0.395177 0.00844905 0.462751 
-0.405517 0.0304635 0.500049 
-0.403333 -0.203333 0.469852 
-0.403333 -0.203333 0.5 
-0.402763 0.397237 0.469859 
-0.402763 0.397237 0.5 
-0.203538 -0.203538 0.469851 
-0.203538 -0.203538 0.5 
-0.00366947 -0.203669 0.46985 
-0.00366947 -0.203669 0.5 
-0.00360232 -0.00360232 0.46985 
-0.00360232 -0.00360232 0.5 
-0.428016 -0.390844 0.429608 
-0.44289 -0.401248 0.502325 
LINES 228 684
2 0 1
2 2 3
2 4 5
2 6 7
2 8 9
2 10 11
2 12 13
2 14 15
2 16 17
2 18 19
2 20 21
2 22 23
2 24 25
2 26 27
2 28 29
2 30 31
2 32 33
2 34 35
2 36 37
2 38 39
2 40 41
2 42 43
2 44 45
2 46 47
2 48 49
2 50 51
2 52 53
2 54 55
2 56 57
2 58 59
2 60 61
2 62 63
2 64 65
2 66 67
2 68 69
2 70 71
2 72 73
2 74 75
2 76 77
2 78 79
2 80 81
2 82 83
2 84 85
2 86 87
2 88 89
2 90 91
2 92 93
2 94 95
2 96 97
2 98 99
2 100 101
2 102 103
2 104 105
2 106 107
2 108 109
2 110 111
2 112 113
2 114 115
2 116 117
2 118 119
2 120 121
2 122 123
2 124 125
2 126 127
2 128 129
2 130 131
2 132 133
2 134 135
2 136 137
2 138 139
2 140 141
2 142 143
2 144 145
2 146 147
2 148 149
2 150 151
2 152 153
2 154 155
2 156 157
2 158 159
2 160 161
2 162 163
2 164 165
2 166 167
2 168 169
2 170 171
2 172 173
2 174 175
2 176 177
2 178 179
2 180 181
2 182 183
2 184 185
2 186 187
2 188 189
2 190 191
2 192 193
2 194 195
2 196 197
2 198 199
2 200 201
2 202 203
2 204 205
2 206 207
2 208 209
2 210 211
2 212 213
2 214 215
2 216 217
2 218 219
2 220 221
2 222 223
2 224 225
2 226 227
2 228 229
2 230 231
2 232 233
2 234 235
2 236 237
2 238 239
2 240 241
2 242 243
2 244 245
2 246 247
2 248 249
2 250 251
2 252 253
2 254 255
2 256 257
2 258 259
2 260 261
2 262 263
2 264 265
2 266 267
2 268 269
2 270 271
2 272 273
2 274 275
2 276 277
2 278 279
2 280 281
2 282 283
2 284 285
2 286 287
2 288 289
2 290 291
2 292 293
2 294 295
2 296 297
2 298 299
2 300 301
2 302 303
2 304 305
2 306 307
2 308 309
2 310 311
2 312 313
2 314 315
2 316 317
2 318 319
2 320 321
2 322 323
2 324 325
2 326 327
2 328 329
2 330 331
2 332 333
2 334 335
2 336 337
2 338 339
2 340 341
2 342 343
2 344 345
2 346 347
2 348 349
2 350 351
2 352 353
2 354 355
2 356 357
2 358 359
2 360 361
2 362 363
2 364 365
2 366 367
2 368 369
2 370 371
2 372 373
2 374 375
2 376 377
2 378 379
2 380 381
2 382 383
2 384 385
2 386 387
2 388 389
2 390 391
2 392 393
2 394 395
2 396 397
2 398 399
2 400 401
2 402 403
2 404 405
2 406 407
2 408 409
2 410 411
2 412 413
2 414 415
2 416 417
2 418 419
2 420 421
2 422 423
2 424 425
2 426 427
2 428 429
2 430 431
2 432 433
2 434 435
2 436 437
2 438 439
2 440 441
2 442 443
2 444 445
2 446 447
2 448 449
2 450 451
2 452 453
2 454 455
POINT_DATA 456
SCALARS id int 1
LOOKUP_TABLE default
0
25
1
26
2
27
4
29
5
30
6
31
7
32
9
34
10
35
11
36
12
37
14
114
15
40
16
41
17
42
19
98
19
24
19
124
20
46
20
45
23
122
25
50
26
51
27
52
29
54
31
56
32
57
34
59
35
80
35
60
35
135
36
61
37
62
38
39
38
63
40
65
41
66
42
67
44
124
50
75
51
76
52
77
53
139
54
79
55
80
56
81
57
82
58
83
59
84
60
85
60
110
61
86
62
87
63
113
65
116
65
90
65
85
67
92
73
97
73
74
75
100
76
101
77
102
79
104
80
105
81
106
82
107
86
111
87
112
90
115
92
117
93
118
95
170
96
146
98
123
100
125
101
126
104
129
105
130
106
131
107
132
111
136
112
137
113
138
114
139
115
140
116
141
117
142
118
168
119
149
119
199
124
149
125
150
126
151
129
154
131
156
132
157
134
139
134
159
136
161
137
162
138
163
140
165
141
166
142
167
146
171
146
170
149
173
150
175
151
176
154
179
156
181
157
182
159
184
161
186
162
187
165
190
166
191
167
192
168
193
171
222
173
198
175
200
176
201
179
204
181
206
182
207
183
208
183
188
184
209
186
211
187
212
190
215
191
216
192
217
193
218
198
273
199
224
200
225
201
251
204
254
206
256
207
257
208
233
209
234
211
261
212
262
215
240
217
242
222
272
224
249
225
250
226
301
229
304
231
306
232
307
233
258
234
259
236
311
237
312
242
267
250
275
251
276
254
279
256
281
257
282
259
284
261
286
262
287
263
294
275
300
276
301
279
304
281
306
282
307
286
311
287
312
290
315
74
1
96
1
45
2
114
3
124
3
59
3
7
4
17
4
20
4
4
4
55
4
22
4
2
4
0
4
38
4
15
4
34
4
14
4
9
4
49
4
3
4
64
4
10
4
33
4
74
4
39
4
11
4
6
4
47
4
12
4
8
4
68
4
13
4
18
4
43
4
89
4
16
4
23
4
24
4
1
4
21
4
5
4
232
5
302
5
226
5
229
5
231
5
236
5
237
5
300
5
CELL_DATA 228
VECTORS force double
-104.924 59.558 -2932.18 
0 0 -43801.3 
-10.3849 -5.07378 -29.8202 
0 0 -43790 
0.679351 1.45977 -0.810409 
0 0 -43798.3 
0 0 -43807.8 
-3.6383 -5.42008 -8.05448 
13.2767 31.8886 -101.413 
0 0 -43799 
0 0 -43798.7 
7.07844 -8.07185 -34.908 
-31.3968 -18.2988 -1734.84 
-0.44401 3.1795 -16.0441 
163.017 -58.2576 -812.602 
-4.80758 227.855 -117.581 
-38.3818 -90.1708 145.554 
27.6606 -4.76597 -11.9221 
-1.24087 -23.0231 -55.4833 
-0.591701 -0.118945 25.4673 
-0.988032 1.75408 -5.80099 
125.874 -15.0679 -3047.91 
0 0 -43908.8 
-11.6093 -8.36853 -54.6133 
0 0 -43898.4 
0 0 -43906.1 
0 0 -43915.5 
14.0509 -12.7373 -25.0601 
35.4347 -0.960353 -20.5033 
-41.2465 15.7115 -90.1761 
0.404599 22.2854 34.2148 
0 0 -43906.8 
0 0 -43906.5 
-1.66069 -4.51533 8.5807 
-7.81532 12.0351 -34.4461 
57.3282 -117.994 -1559.6 
-0.539373 0.883762 -2.53959 
-1.32268 -14.9276 -184.583 
4.55204 10.0353 11.1775 
191.814 76.0343 -3221.85 
0 0 -44033.7 
10.7198 10.5581 -73.427 
-5.12351 -12.5095 -18.9491 
0 0 -44025.1 
-3.5855 17.7946 -43.7907 
0 0 -44031.6 
0 0 -44041.4 
4.02785 -3.93593 -0.831174 
4.19524 -1.50655 -7.57997 
-25.3348 11.6377 -28.0987 
-13.5636 -1.18685 -24.4302 
0 0 -44032.2 
0 0 -44031.9 
-2.77955 6.59858 -31.3702 
-66.2618 -265.168 -246.994 
99.3004 56.6528 -947.626 
30.3565 54.6415 -99.3618 
-1.88559 -9.61632 -381.711 
2.65505 7.72268 -10.601 
-1.74825 -7.74492 25.7616 
6.32648 104.838 -3363.4 
0 0 -44128.4 
-1.19826 2.17113 -66.8611 
0 0 -44122 
14.8243 5.19954 -20.3187 
0 0 -44126.9 
0 0 -44136.7 
0 0 -44127.3 
0 0 -44127.1 
67.5591 -34.1681 -685.133 
-7.35642 10.5708 -401.752 
0.530833 -1.30248 7.4728 
-0.651319 -7.28977 -4.17866 
-7.55629 -10.9715 6.63385 
-17.2914 172.721 -76.8508 
-417.421 200.647 -3773.75 
0 0 -44142.4 
0 0 -44141.7 
3.23678 1.074 -6.97169 
0 0 -44142.6 
0 0 -44145.4 
0 0 -44142.6 
0 0 -44142.5 
-2.03659 5.8458 -16.4549 
5.81565 5.88902 -11.8786 
70.2299 -18.518 -447.818 
12.4137 -228.335 -183.768 
-14.5137 26.8981 -419.377 
-2.84736 -12.1048 39.8399 
-34.6279 77.5192 48.6955 
3.63791 26.7716 -2.69078 
21.1065 77.6957 -63.2794 
-738.878 -49.5514 -4232.61 
0 0 -43926.5 
0 0 -43928.1 
0 0 -43928.3 
0 0 -43923.6 
-18.1177 9.99392 29.8008 
12.4215 -8.48395 -48.8837 
0 0 -43928.1 
0 0 -43928.2 
-3.64023 4.47049 -6.62334 
32.5835 13.1708 -263.124 
11.5205 -110.826 -153.23 
-10.0644 28.2667 -365.466 
-2.1327 -38.1087 -43.2582 
-1.26607 5.80147 10.1089 
36.0042 185.531 -54.9183 
-907.74 -675.066 -5036.31 
0 0 -43502.8 
0 0 -43504.2 
0 0 -43506.4 
0 0 -43497.8 
0.789326 -7.85886 -42.7587 
0 0 -43506.1 
0 0 -43506.3 
5.79306 29.6544 -175.849 
-1.61386 -45.0392 -117.437 
33.4642 19.1855 -285.157 
-6.22691 -3.11361 1.99345 
-3.21952 -46.7094 -72.8749 
34.7536 156.381 -52.3975 
560.75 -766.608 -5380.65 
0 0 -42917 
0 0 -42918.2 
0 0 -42922 
0 0 -42912.9 
2.00485 6.85601 -14.6393 
-6.65887 -0.425094 4.69124 
0.305893 2.14325 -63.7316 
0 0 -42921.6 
0 0 -42922 
-3.87503 8.18855 -107.93 
22.6897 7.89856 -91.8262 
31.7302 7.43326 -223.02 
-95.6631 11.0269 -197.206 
17.1985 15.2143 -3.31356 
5.78697 -9.53872 -55.7525 
918.081 -94.3547 -6652.97 
0 0 -42246.5 
0 0 -42247.7 
0 0 -42251.8 
0 0 -42242.9 
-0.396524 3.06319 2.58117 
3.33052 5.25369 -54.8168 
0 0 -42251.4 
0 0 -42251.7 
-6.94919 -8.55197 -27.5448 
5.28254 5.90764 -129.66 
-0.784779 -57.1926 -72.0561 
-9.90629 93.8854 -444.322 
408.1 1183.8 -5785.36 
0 0 40564.5 
0 0 40578.8 
0 0 40561.9 
0 0 40557.9 
-2.18366 0.315726 12.3599 
3.90764 -8.32371 -39.3715 
0 0 40561.4 
0 0 40561.5 
15.5124 2.70944 -45.9516 
1456.17 1101.1 -4889.08 
0 0 -41577.8 
0 0 -41581.3 
0 0 -41581.7 
0 0 -41573.3 
0.0415075 3.426 -20.1125 
0 0 -41581.3 
0 0 -41581.5 
-60.0995 -6.15703 -11.7155 
-545.03 1172.48 -2003.92 
0 0 -40994 
0 0 -41002.7 
0 0 -40994.7 
0 0 -40988.1 
0 0 -40994.3 
0 0 -40994.4 
15.7016 0.889007 -43.9314 
-10.4029 0.280473 12.8164 
12.3382 0.837077 5.47362 
0.817885 -7.46551 -3.15054 
3.99616 -29.8829 -11.1733 
32.2585 -60.76 53.089 
5.83224 -11.2186 -6.84435 
0 0 43756.5 
-294.256 -1.81462 9.54999 
-0.354019 26.4855 39.895 
0 0 43738.5 
10.7677 -26.7517 59.9489 
-1.3849 3.67587 -8.96125 
6.16725 2.24197 16.7279 
104.118 -80.974 3045.25 
-3.83044 6.33265 24.4069 
49.1068 -60.298 1966.45 
-20.2148 11.3991 27.387 
-14.8673 4.41564 44.7407 
4.55037 6.865 20.8001 
0.58112 -1.27266 11.4445 
-0.000207815 0.000155667 13.6114 
0.999571 -3.20927 9.20193 
-25.2993 -24.4095 138.225 
-0.621638 -1.12466 13.611 
8.88724 -6.59915 24.8227 
-1.66206 -4.59016 17.4867 
0 0 43747.4 
0 0 43746.6 
-8.01589e-14 -4.03888e-14 13.6117 
0 0 43747.1 
2.41017 -6.16563 12.8156 
14.8488 -13.027 -12.2312 
1.53827 -0.45284 13.7837 
1.51875 -0.672162 13.2812 
0.325518 135.368 49.3308 
-2.52737 -0.560526 14.8549 
0.594464 -5.31309 26.8998 
1.01652 -1.9603 19.4109 
-49.0032 -77.9301 146.312 
0 0 43749.9 
-1.71168e-06 0.00014232 13.6119 
-1.18606 -2.87033 11.7217 
0 0 -40328.8 
45.6851 -99.474 -192.425 
0 0 -40335.3 
0 0 -40352.6 
0 0 -40331 
0 0 -40330.5 
0 0 -40330.7 
808.44 -748.049 -2781.48 
VECTORS moment double
0 0 0 
0 0 0 
0 0 0 
0 0 0 
0 0 0 
0 0 0 
0 0 0 
0 0 0 
0 0 0 
0 0 0 
0 0 0 
0 0 0 
0 0 0 
0 0 0 
0 0 0 
0 0 0 
0 0 0 
0 0 0 
0 0 0 
0 0 0 
0 0 0 
0 0 0 
0 0 0 
0 0 0 
0 0 0 
0 0 0 
0 0 0 
0 0 0 
0 0 0 
0 0 0 
0 0 0 
0 0 0 
0 0 0 
0 0 0 
0 0 0 
0 0 0 
0 0 0 
0 0 0 
0 0 0 
0 0 0 
0 0 0 
0 0 0 
0 0 0 
0 0 0 
0 0 0 
0 0 0 
0 0 0 
0 0 0 
0 0 0 
0 0 0 
0 0 0 
0 0 0 
0 0 0 
0 0 0 
0 0 0 
0 0 0 
0 0 0 
0 0 0 
0 0 0 
0 0 0 
0 0 0 
0 0 0 
0 0 0 
0 0 0 
0 0 0 
0 0 0 
0 0 0 
0 0 0 
0 0 0 
0 0 0 
0 0 0 
0 0 0 
0 0 0 
0 0 0 
0 0 0 
0 0 0 
0 0 0 
0 0 0 
0 0 0 
0 0 0 
0 0 0 
0 0 0 
0 0 0 
0 0 0 
0 0 0 
0 0 0 
0 0 0 
0 0 0 
0 0 0 
0 0 0 
0 0 0 
0 0 0 
0 0 0 
0 0 0 
0 0 0 
0 0 0 
0 0 0 
0 0 0 
0 0 0 
0 0 0 
0 0 0 
0 0 0 
0 0 0 
0 0 0 
0 0 0 
0 0 0 
0 0 0 
0 0 0 
0 0 0 
0 0 0 
0 0 0 
0 0 0 
0 0 0 
0 0 0 
0 0 0 
0 0 0 
0 0 0 
0 0 0 
0 0 0 
0 0 0 
0 0 0 
0 0 0 
0 0 0 
0 0 0 
0 0 0 
0 0 0 
0 0 0 
0 0 0 
0 0 0 
0 0 0 
0 0 0 
0 0 0 
0 0 0 
0 0 0 
0 0 0 
0 0 0 
0 0 0 
0 0 0 
0 0 0 
0 0 0 
0 0 0 
0 0 0 
0 0 0 
0 0 0 
0 0 0 
0 0 0 
0 0 0 
0 0 0 
0 0 0 
0 0 0 
0 0 0 
0 0 0 
0 0 0 
0 0 0 
0 0 0 
0 0 0 
0 0 0 
0 0 0 
0 0 0 
0 0 0 
0 0 0 
0 0 0 
0 0 0 
0 0 0 
0 0 0 
0 0 0 
0 0 0 
0 0 0 
0 0 0 
0 0 0 
0 0 0 
0 0 0 
0 0 0 
0 0 0 
0 0 0 
0 0 0 
0 0 0 
0 0 0 
0 0 0 
0 0 0 
0 0 0 
0 0 0 
0 0 0 
0 0 0 
0 0 0 
0 0 0 
0 0 0 
0 0 0 
0 0 0 
0 0 0 
0 0 0 
0 0 0 
0 0 0 
0 0 0 
0 0 0 
0 0 0 
0 0 0 
0 0 0 
0 0 0 
0 0 0 
0 0 0 
0 0 0 
0 0 0 
0 0 0 
0 0 0 
0 0 0 
0 0 0 
0 0 0 
0 0 0 
0 0 0 
0 0 0 
0 0 0 
0 0 0 
0 0 0 
0 0 0 
0 0 0 
0 0 0 
0 0 0 
0 0 0 
0 0 0 
0 0 0 
0 0 0 
0 0 0 
0 0 0 
0 0 0 
0 0 0 
0 0 0 
0 0 0 
SCALARS num_collisions int 1
LOOKUP_TABLE default
1 
1 
1 
1 
1 
1 
1 
1 
1 
1 
1 
1 
1 
1 
1 
1 
1 
1 
1 
1 
1 
1 
1 
1 
1 
1 
1 
1 
1 
1 
1 
1 
1 
1 
1 
1 
1 
1 
1 
1 
1 
1 
1 
1 
1 
1 
1 
1 
1 
1 
1 
1 
1 
1 
1 
1 
1 
1 
1 
1 
1 
1 
1 
1 
1 
1 
1 
1 
1 
1 
1 
1 
1 
1 
1 
1 
1 
1 
1 
1 
1 
1 
1 
1 
1 
1 
1 
1 
1 
1 
1 
1 
1 
1 
1 
1 
1 
1 
1 
1 
1 
1 
1 
1 
1 
1 
1 
1 
1 
1 
1 
1 
1 
1 
1 
1 
1 
1 
1 
1 
1 
1 
1 
1 
1 
1 
1 
1 
1 
1 
1 
1 
1 
1 
1 
1 
1 
1 
1 
1 
1 
1 
1 
1 
1 
1 
1 
1 
1 
1 
1 
1 
1 
1 
1 
1 
1 
1 
1 
1 
1 
1 
1 
1 
1 
1 
1 
1 
1 
1 
1 
1 
1 
1 
1 
1 
1 
1 
1 
1 
1 
1 
1 
1 
1 
1 
1 
1 
1 
1 
1 
1 
1 
1 
1 
1 
1 
1 
1 
1 
1 
1 
1 
1 
1 
1 
1 
1 
1 
1 
1 
1 
1 
1 
1 
1 
1 
1 
1 
1 
1 
1 
1 
1 
1 
1 
1 
1 
VECTORS pos double
-0.393649 -0.394616 -0.425984 
-0.403333 -0.203333 -0.43367 
-0.382119 -0.000912188 -0.424223 
-0.402763 0.397237 -0.433663 
-0.283818 -0.412219 -0.432178 
-0.203538 -0.203538 -0.433664 
-0.203218 -0.00321788 -0.433672 
-0.202215 0.40084 -0.464267 
-0.0300387 -0.402419 -0.418024 
-0.00366947 -0.203669 -0.433665 
-0.00360232 -0.00360232 -0.433664 
-0.0781007 0.413669 -0.433179 
0.212274 -0.406366 -0.425088 
0.164586 -0.178038 -0.424516 
0.211273 0.00101032 -0.426205 
0.317753 0.367978 -0.385208 
0.342113 0.426735 -0.440503 
0.332971 0.433283 -0.356388 
0.400132 -0.375268 -0.407082 
0.398285 -0.425418 -0.406526 
0.400888 0.0616065 -0.412277 
-0.40387 -0.403797 -0.355653 
-0.403333 -0.203333 -0.355985 
-0.371335 0.00407009 -0.348842 
-0.402763 0.397237 -0.355972 
-0.203538 -0.203538 -0.355976 
-0.203218 -0.00321788 -0.355991 
-0.199797 0.438543 -0.433345 
-0.101717 -0.422457 -0.370147 
-0.0118608 -0.415134 -0.374537 
-0.0636474 -0.381088 -0.339564 
-0.00366947 -0.203669 -0.355978 
-0.00360232 -0.00360232 -0.355977 
0.0406116 0.301991 -0.430754 
-0.0172399 0.24429 -0.40068 
0.210341 -0.401356 -0.348993 
0.132772 -0.167018 -0.360432 
0.207854 0.00715897 -0.349715 
0.344935 0.437261 -0.30994 
-0.398205 -0.405782 -0.277739 
-0.403333 -0.203333 -0.278296 
-0.369625 0.0118643 -0.277656 
-0.159517 0.32595 -0.338137 
-0.402763 0.397237 -0.278278 
-0.178928 -0.407159 -0.413316 
-0.203538 -0.203538 -0.278286 
-0.203218 -0.00321788 -0.278306 
-0.127241 0.209692 -0.363462 
-0.247161 0.434754 -0.37641 
0.0512474 -0.455885 -0.308684 
0.0256754 -0.405231 -0.315084 
-0.00366947 -0.203669 -0.278288 
-0.00360232 -0.00360232 -0.278287 
-0.0188332 0.23593 -0.336374 
0.209294 -0.360115 -0.281132 
0.218892 -0.403948 -0.269998 
0.136536 -0.398774 -0.322747 
0.206827 0.0106157 -0.27456 
0.428631 0.200257 -0.330647 
0.443698 0.246047 -0.409821 
-0.399609 -0.409705 -0.196379 
-0.403333 -0.203333 -0.200577 
-0.380279 0.000208782 -0.214422 
-0.402763 0.397237 -0.200554 
-0.194003 -0.39178 -0.371617 
-0.203538 -0.203538 -0.200567 
-0.203218 -0.00321788 -0.20059 
-0.00366947 -0.203669 -0.200569 
-0.00360232 -0.00360232 -0.200568 
0.21352 -0.40281 -0.197603 
0.205391 0.00924737 -0.199952 
0.204348 0.184756 -0.38819 
0.3909 -0.287393 -0.23451 
0.422263 -0.130421 -0.269052 
0.325257 0.280648 -0.340671 
-0.400176 -0.422009 -0.122086 
-0.403333 -0.203333 -0.12277 
-0.402763 0.397237 -0.122744 
-0.205675 -0.407812 -0.300564 
-0.203538 -0.203538 -0.122761 
-0.203218 -0.00321788 -0.122784 
-0.00366947 -0.203669 -0.122763 
-0.00360232 -0.00360232 -0.122762 
-0.00690362 0.233418 -0.269389 
-0.0785684 0.402582 -0.356932 
0.2093 -0.398679 -0.123262 
0.220696 -0.261464 -0.203865 
0.205369 0.00531539 -0.123688 
0.225347 0.195211 -0.31796 
0.392747 0.44022 -0.233475 
0.374148 0.449675 -0.142291 
0.414794 0.421636 -0.293383 
-0.39298 -0.418493 -0.0463408 
-0.403333 -0.203333 -0.0447878 
-0.402763 0.397237 -0.044762 
-0.203538 -0.203538 -0.0447803 
-0.203218 -0.00321788 -0.0448001 
-0.16216 0.359368 -0.328745 
-0.200925 0.374803 -0.254842 
-0.00366947 -0.203669 -0.0447824 
-0.00360232 -0.00360232 -0.0447813 
-0.00652469 0.214148 -0.194345 
0.183769 -0.399367 -0.0557956 
0.194937 -0.220985 -0.149183 
0.212729 0.000578453 -0.0487107 
0.391956 -0.12972 -0.199405 
0.395797 -0.20557 -0.219801 
0.398376 0.37092 -0.24985 
-0.383402 -0.414 0.0302115 
-0.403333 -0.203333 0.0334601 
-0.402763 0.397237 0.0334852 
-0.203538 -0.203538 0.0334656 
-0.203218 -0.00321788 0.0334499 
-0.207465 0.381844 -0.186417 
-0.00366947 -0.203669 0.0334637 
-0.00360232 -0.00360232 0.0334646 
0.183036 -0.402347 0.0355854 
0.204727 -0.176105 -0.0750422 
0.218811 -0.00519306 0.0267481 
0.167452 0.16024 -0.249084 
0.394082 -0.0717315 -0.11836 
0.378299 0.280577 -0.22021 
-0.376786 -0.396599 0.110055 
-0.403333 -0.203333 0.112043 
-0.402763 0.397237 0.112067 
-0.203538 -0.203538 0.112046 
-0.203218 -0.00321788 0.112034 
-0.141172 0.189553 -0.0172926 
-0.11149 0.219411 -0.0838776 
-0.195333 0.407439 -0.121061 
-0.00366947 -0.203669 0.112044 
-0.00360232 -0.00360232 0.112045 
0.180963 -0.414982 0.111203 
0.186159 -0.175066 0.0282874 
0.208641 -0.0085612 0.102912 
0.202018 0.157624 -0.168762 
0.384792 0.222695 -0.168563 
0.395238 0.412513 -0.0697426 
-0.396042 -0.394627 0.181223 
-0.403333 -0.203333 0.190994 
-0.402763 0.397237 0.191017 
-0.203538 -0.203538 0.190994 
-0.203218 -0.00321788 0.190987 
-0.170635 0.196387 0.0669235 
-0.19497 0.386404 -0.0289576 
-0.00366947 -0.203669 0.190993 
-0.00360232 -0.00360232 0.190993 
0.213735 -0.412076 0.183972 
0.209281 -0.00652282 0.179086 
0.397437 -0.0148555 -0.036455 
0.391452 0.416919 0.00218909 
-0.403151 -0.393168 0.243427 
-0.403333 -0.203333 0.429828 
-0.402763 0.397237 0.429838 
-0.203538 -0.203538 0.429826 
-0.203218 -0.00321788 0.429826 
-0.201777 0.205197 0.161404 