# vtk DataFile Version 2.0
Generated by NetDEM
ASCII 
DATASET POLYDATA
POINTS 376 double
-0.416916 -0.40548 -0.462882 
-0.402813 -0.399749 -0.388234 
-0.403333 -0.203333 -0.45122 
-0.403333 -0.203333 -0.352281 
-0.41127 -0.00743455 -0.464098 
-0.412272 -0.00923323 -0.390639 
-0.403312 0.197023 -0.451174 
-0.403219 0.197027 -0.352191 
-0.402763 0.397237 -0.4512 
-0.402763 0.397237 -0.352244 
-0.264664 -0.432944 -0.459573 
-0.300615 -0.404789 -0.383835 
-0.203538 -0.203538 -0.451225 
-0.203538 -0.203538 -0.35229 
-0.203218 -0.00321788 -0.451214 
-0.203218 -0.00321788 -0.352269 
-0.175756 0.204942 -0.457951 
-0.205335 0.207989 -0.377372 
-0.246763 0.369129 -0.465052 
-0.154776 0.408572 -0.443715 
-0.028996 -0.404045 -0.451562 
-0.0337052 -0.390303 -0.376991 
-0.00366947 -0.203669 -0.451227 
-0.00366947 -0.203669 -0.352295 
-0.00360232 -0.00360232 -0.451223 
-0.00360232 -0.00360232 -0.352287 
-0.0371926 0.39339 -0.465047 
0.0353718 0.356512 -0.405928 
0.189043 -0.398143 -0.464492 
0.187687 -0.396392 -0.392112 
0.17443 -0.212187 -0.464777 
0.193776 -0.206868 -0.391105 
0.172919 -0.00936855 -0.462527 
0.185843 -0.0131764 -0.383846 
0.158143 0.208332 -0.464116 
0.199026 0.123142 -0.441963 
0.196913 0.396913 -0.451212 
0.196913 0.396913 -0.352267 
0.396713 -0.403287 -0.451218 
0.396713 -0.403287 -0.352277 
0.39661 -0.20339 -0.451217 
0.39661 -0.20339 -0.352276 
0.396488 -0.00351175 -0.451225 
0.396488 -0.00351175 -0.35229 
0.396508 0.196508 -0.451224 
0.396508 0.196508 -0.352288 
0.370914 0.443614 -0.464399 
0.384512 0.364976 -0.433412 
-0.402813 -0.399749 -0.388234 
-0.40111 -0.40398 -0.316138 
-0.403333 -0.203333 -0.352281 
-0.403333 -0.203333 -0.253103 
-0.412272 -0.00923323 -0.390639 
-0.393982 -0.00254283 -0.311278 
-0.403219 0.197027 -0.352191 
-0.402839 0.197059 -0.252978 
-0.402763 0.397237 -0.352244 
-0.402763 0.397237 -0.253052 
-0.300615 -0.404789 -0.383835 
-0.40111 -0.40398 -0.316138 
-0.203538 -0.203538 -0.35229 
-0.203538 -0.203538 -0.253116 
-0.203218 -0.00321788 -0.352269 
-0.203218 -0.00321788 -0.253086 
-0.154776 0.408572 -0.443715 
-0.203348 0.43789 -0.37516 
-0.00366947 -0.203669 -0.352295 
-0.00366947 -0.203669 -0.253122 
-0.00360232 -0.00360232 -0.352287 
-0.00360232 -0.00360232 -0.253111 
0.187687 -0.396392 -0.392112 
0.1754 -0.394785 -0.3186 
0.193776 -0.206868 -0.391105 
0.176254 -0.185016 -0.305872 
0.185843 -0.0131764 -0.383846 
0.187688 0.00285035 -0.309215 
0.199026 0.123142 -0.441963 
0.208482 0.194688 -0.373921 
0.196913 0.396913 -0.352267 
0.196913 0.396913 -0.253084 
0.396713 -0.403287 -0.352277 
0.396713 -0.403287 -0.253098 
0.39661 -0.20339 -0.352276 
0.39661 -0.20339 -0.253096 
0.396488 -0.00351175 -0.35229 
0.396488 -0.00351175 -0.253115 
0.396508 0.196508 -0.352288 
0.396508 0.196508 -0.253112 
-0.40111 -0.40398 -0.316138 
-0.409932 -0.405229 -0.240532 
-0.403333 -0.203333 -0.253103 
-0.403333 -0.203333 -0.15362 
-0.393982 -0.00254283 -0.311278 
-0.393523 0.00139148 -0.234656 
-0.402839 0.197059 -0.252978 
-0.402951 0.197052 -0.153471 
-0.402763 0.397237 -0.253052 
-0.402763 0.397237 -0.15356 
-0.182798 -0.398464 -0.43471 
-0.139635 -0.408888 -0.343665 
-0.203538 -0.203538 -0.253116 
-0.203538 -0.203538 -0.153636 
-0.203218 -0.00321788 -0.253086 
-0.203218 -0.00321788 -0.153601 
-0.205335 0.207989 -0.377372 
-0.14715 0.187433 -0.320647 
-0.203348 0.43789 -0.37516 
-0.211183 0.417905 -0.286868 
-0.00366947 -0.203669 -0.253122 
-0.00366947 -0.203669 -0.153643 
-0.00360232 -0.00360232 -0.253111 
-0.00360232 -0.00360232 -0.15363 
0.1754 -0.394785 -0.3186 
0.200094 -0.398577 -0.229522 
0.176254 -0.185016 -0.305872 
0.186271 -0.200899 -0.220736 
0.187688 0.00285035 -0.309215 
0.192181 0.00323816 -0.235341 
0.196913 0.396913 -0.253084 
0.196913 0.396913 -0.153598 
0.396713 -0.403287 -0.253098 
0.396713 -0.403287 -0.153615 
0.39661 -0.20339 -0.253096 
0.39661 -0.20339 -0.153612 
0.396488 -0.00351175 -0.253115 
0.396488 -0.00351175 -0.153635 
0.396508 0.196508 -0.253112 
0.396508 0.196508 -0.153632 
-0.409932 -0.405229 -0.240532 
-0.407421 -0.408406 -0.156466 
-0.403333 -0.203333 -0.15362 
-0.403333 -0.203333 -0.0538631 
-0.393523 0.00139148 -0.234656 
-0.396667 -0.00534891 -0.152814 
-0.402951 0.197052 -0.153471 
-0.402962 0.197047 -0.0537013 
-0.402763 0.397237 -0.15356 
-0.402763 0.397237 -0.0537977 
-0.139635 -0.408888 -0.343665 
-0.235017 -0.401519 -0.295154 
-0.203538 -0.203538 -0.153636 
-0.203538 -0.203538 -0.0538801 
-0.203218 -0.00321788 -0.153601 
-0.203218 -0.00321788 -0.0538421 
-0.14715 0.187433 -0.320647 
-0.213709 0.185177 -0.245186 
-0.00366947 -0.203669 -0.153643 
-0.00366947 -0.203669 -0.053887 
-0.00360232 -0.00360232 -0.15363 
-0.00360232 -0.00360232 -0.0538729 
0.200094 -0.398577 -0.229522 
0.198197 -0.405436 -0.157417 
0.186271 -0.200899 -0.220736 
0.198943 -0.232722 -0.135054 
0.192181 0.00323816 -0.235341 
0.187832 0.00114622 -0.162397 
0.208482 0.194688 -0.373921 
0.186497 0.210869 -0.279647 
0.196913 0.396913 -0.153598 
0.196913 0.396913 -0.0538391 
0.396713 -0.403287 -0.153615 
0.396713 -0.403287 -0.0538576 
0.39661 -0.20339 -0.153612 
0.39661 -0.20339 -0.0538537 
0.396488 -0.00351175 -0.153635 
0.396488 -0.00351175 -0.053879 
0.396508 0.196508 -0.153632 
0.396508 0.196508 -0.0538753 
-0.407421 -0.408406 -0.156466 
-0.412405 -0.406706 -0.079776 
-0.403333 -0.203333 -0.0538631 
-0.403333 -0.203333 0.0460521 
-0.396667 -0.00534891 -0.152814 
-0.419076 -0.00432865 -0.0780204 
-0.402962 0.197047 -0.0537013 
-0.402946 0.19705 0.0462193 
-0.402763 0.397237 -0.0537977 
-0.402763 0.397237 0.0461197 
-0.235017 -0.401519 -0.295154 
-0.22596 -0.403101 -0.203767 
-0.203538 -0.203538 -0.0538801 
-0.203538 -0.203538 0.0460347 
-0.203218 -0.00321788 -0.0538421 
-0.203218 -0.00321788 0.046074 
-0.213709 0.185177 -0.245186 
-0.211334 0.205506 -0.156391 
0.0109846 -0.391581 -0.143603 
-0.0153436 -0.396958 -0.0610534 
-0.00366947 -0.203669 -0.053887 
-0.00366947 -0.203669 0.0460277 
-0.00360232 -0.00360232 -0.0538729 
-0.00360232 -0.00360232 0.0460425 
0.198197 -0.405436 -0.157417 
0.208202 -0.400911 -0.0782616 
0.198943 -0.232722 -0.135054 
0.194003 -0.209107 -0.0427744 
0.187832 0.00114622 -0.162397 
0.1848 -0.00241608 -0.0865 
0.186497 0.210869 -0.279647 
0.203136 0.218995 -0.191759 
0.196913 0.396913 -0.0538391 
0.196913 0.396913 0.0460769 
0.396713 -0.403287 -0.0538576 
0.396713 -0.403287 0.0460578 
0.39661 -0.20339 -0.0538537 
0.39661 -0.20339 0.0460622 
0.396488 -0.00351175 -0.053879 
0.396488 -0.00351175 0.0460358 
0.396508 0.196508 -0.0538753 
0.396508 0.196508 0.0460396 
-0.412405 -0.406706 -0.079776 
-0.410028 -0.403544 0.00174652 
-0.403333 -0.203333 0.0460521 
-0.403333 -0.203333 0.146025 
-0.419076 -0.00432865 -0.0780204 
-0.404379 -0.000705143 0.0131203 
-0.402946 0.19705 0.0462193 
-0.402951 0.19705 0.146194 
-0.402763 0.397237 0.0461197 
-0.402763 0.397237 0.146093 
-0.22596 -0.403101 -0.203767 
-0.188763 -0.4024 -0.0985447 
-0.203538 -0.203538 0.0460347 
-0.203538 -0.203538 0.146008 
-0.203218 -0.00321788 0.046074 
-0.203218 -0.00321788 0.146047 
-0.211334 0.205506 -0.156391 
-0.205843 0.204255 -0.0651849 
-0.0153436 -0.396958 -0.0610534 
-0.0109817 -0.405109 0.0320382 
-0.00366947 -0.203669 0.0460277 
-0.00366947 -0.203669 0.146 
-0.00360232 -0.00360232 0.0460425 
-0.00360232 -0.00360232 0.146015 
0.208202 -0.400911 -0.0782616 
0.188158 -0.406423 -0.00694966 
0.194003 -0.209107 -0.0427744 
0.198301 -0.202337 0.036692 
0.203136 0.218995 -0.191759 
0.19551 0.191826 -0.104057 
0.196913 0.396913 0.0460769 
0.196913 0.396913 0.14605 
0.396713 -0.403287 0.0460578 
0.396713 -0.403287 0.146031 
0.39661 -0.20339 0.0460622 
0.39661 -0.20339 0.146035 
0.396488 -0.00351175 0.0460358 
0.396488 -0.00351175 0.146009 
0.396508 0.196508 0.0460396 
0.396508 0.196508 0.146012 
0.392342 0.398096 -0.112266 
0.398573 0.384785 -0.0290275 
-0.410028 -0.403544 0.00174652 
-0.409914 -0.403519 0.0769734 
-0.404379 -0.000705143 0.0131203 
-0.411179 -0.0033853 0.0850719 
-0.188763 -0.4024 -0.0985447 
-0.203834 -0.402498 0.0038934 
0.00314906 0.192529 -0.00956112 
0.000906374 0.200777 0.0799114 
0.198301 -0.202337 0.036692 
0.194704 -0.203946 0.127231 
0.189726 -0.00430088 -0.00452622 
0.188814 -0.00649453 0.068315 
0.19551 0.191826 -0.104057 
0.193733 0.195672 -0.00454234 
0.398573 0.384785 -0.0290275 
0.396343 0.401397 0.0552726 
-0.409914 -0.403519 0.0769734 
-0.403519 -0.403528 0.165588 
0.194704 -0.203946 0.127231 
0.19586 -0.204179 0.21452 
0.396343 0.401397 0.0552726 
0.396737 0.396122 0.163473 
-0.403333 -0.203333 0.350818 
-0.403333 -0.203333 0.450295 
-0.40295 0.19705 0.350864 
-0.40295 0.19705 0.450377 
-0.402763 0.397237 0.350744 
-0.402763 0.397237 0.450303 
-0.203538 -0.203538 0.350819 
-0.203538 -0.203538 0.450296 
-0.203218 -0.00321788 0.35074 
-0.203218 -0.00321788 0.450303 
-0.00366947 -0.203669 0.350823 
-0.00366947 -0.203669 0.450297 
-0.00360232 -0.00360232 0.350743 
-0.00360232 -0.00360232 0.450305 
0.196913 0.396913 0.35082 
0.196913 0.396913 0.450295 
0.396713 -0.403287 0.350819 
0.396713 -0.403287 0.450295 
0.39661 -0.20339 0.350744 
0.39661 -0.20339 0.450305 
0.396488 -0.00351175 0.350818 
0.396488 -0.00351175 0.450296 
0.396508 0.196508 0.35082 
0.396508 0.196508 0.450296 
-0.402763 0.397237 -0.4512 
-0.402763 0.397237 -0.5 
0.172919 -0.00936855 -0.462527 
0.20147 0.00652857 -0.500021 
-0.41127 -0.00743455 -0.464098 
-0.395039 -0.00932562 -0.50003 
-0.0371926 0.39339 -0.465047 
-0.017839 0.396207 -0.500004 
0.370914 0.443614 -0.464399 
0.376183 0.446254 -0.500007 
0.158143 0.208332 -0.464116 
0.184587 0.176425 -0.500071 
0.39661 -0.20339 -0.451217 
0.39661 -0.20339 -0.5 
-0.416916 -0.40548 -0.462882 
-0.392089 -0.405146 -0.50005 
0.396508 0.196508 -0.451224 
0.396508 0.196508 -0.5 
0.189043 -0.398143 -0.464492 
0.194259 -0.395583 -0.500059 
-0.175756 0.204942 -0.457951 
-0.195147 0.213995 -0.500013 
0.17443 -0.212187 -0.464777 
0.185814 -0.190341 -0.500012 
-0.246763 0.369129 -0.465052 
-0.236968 0.36864 -0.500004 
-0.264664 -0.432944 -0.459573 
-0.260749 -0.419196 -0.500008 
0.396488 -0.00351175 -0.451225 
0.396488 -0.00351175 -0.5 
-0.403333 -0.203333 -0.45122 
-0.403333 -0.203333 -0.5 
-0.403312 0.197023 -0.451174 
-0.40331 0.197023 -0.5 
-0.203538 -0.203538 -0.451225 
-0.203538 -0.203538 -0.5 
-0.203218 -0.00321788 -0.451214 
-0.203218 -0.00321788 -0.5 
-0.00366947 -0.203669 -0.451227 
-0.00366947 -0.203669 -0.5 
-0.00360232 -0.00360232 -0.451223 
-0.00360232 -0.00360232 -0.5 
0.196913 0.396913 -0.451212 
0.196913 0.396913 -0.5 
0.396713 -0.403287 -0.451218 
0.396713 -0.403287 -0.5 
-0.182798 -0.398464 -0.43471 
-0.163301 -0.434117 -0.500017 
0.0352818 0.177232 -0.451357 
0.0395113 0.165872 -0.500002 
-0.154776 0.408572 -0.443715 
-0.137208 0.406596 -0.500005 
-0.028996 -0.404045 -0.451562 
-0.00483151 -0.387914 -0.500005 
0.396713 -0.403287 0.450295 
0.396713 -0.403287 0.5 
-0.00360232 -0.00360232 0.450305 
-0.00360232 -0.00360232 0.5 
0.396508 0.196508 0.450296 
0.396508 0.196508 0.5 
-0.40295 0.19705 0.450377 
-0.40295 0.19705 0.5 
-0.402763 0.397237 0.450303 
-0.402763 0.397237 0.5 
0.396488 -0.00351175 0.450296 
0.396488 -0.00351175 0.5 
-0.403333 -0.203333 0.450295 
-0.403333 -0.203333 0.5 
-0.203538 -0.203538 0.450296 
-0.203538 -0.203538 0.5 
-0.00366947 -0.203669 0.450297 
-0.00366947 -0.203669 0.5 
0.196913 0.396913 0.450295 
0.196913 0.396913 0.5 
-0.203218 -0.00321788 0.450303 
-0.203218 -0.00321788 0.5 
0.39661 -0.20339 0.450305 
0.39661 -0.20339 0.5 
LINES 188 564
2 0 1
2 2 3
2 4 5
2 6 7
2 8 9
2 10 11
2 12 13
2 14 15
2 16 17
2 18 19
2 20 21
2 22 23
2 24 25
2 26 27
2 28 29
2 30 31
2 32 33
2 34 35
2 36 37
2 38 39
2 40 41
2 42 43
2 44 45
2 46 47
2 48 49
2 50 51
2 52 53
2 54 55
2 56 57
2 58 59
2 60 61
2 62 63
2 64 65
2 66 67
2 68 69
2 70 71
2 72 73
2 74 75
2 76 77
2 78 79
2 80 81
2 82 83
2 84 85
2 86 87
2 88 89
2 90 91
2 92 93
2 94 95
2 96 97
2 98 99
2 100 101
2 102 103
2 104 105
2 106 107
2 108 109
2 110 111
2 112 113
2 114 115
2 116 117
2 118 119
2 120 121
2 122 123
2 124 125
2 126 127
2 128 129
2 130 131
2 132 133
2 134 135
2 136 137
2 138 139
2 140 141
2 142 143
2 144 145
2 146 147
2 148 149
2 150 151
2 152 153
2 154 155
2 156 157
2 158 159
2 160 161
2 162 163
2 164 165
2 166 167
2 168 169
2 170 171
2 172 173
2 174 175
2 176 177
2 178 179
2 180 181
2 182 183
2 184 185
2 186 187
2 188 189
2 190 191
2 192 193
2 194 195
2 196 197
2 198 199
2 200 201
2 202 203
2 204 205
2 206 207
2 208 209
2 210 211
2 212 213
2 214 215
2 216 217
2 218 219
2 220 221
2 222 223
2 224 225
2 226 227
2 228 229
2 230 231
2 232 233
2 234 235
2 236 237
2 238 239
2 240 241
2 242 243
2 244 245
2 246 247
2 248 249
2 250 251
2 252 253
2 254 255
2 256 257
2 258 259
2 260 261
2 262 263
2 264 265
2 266 267
2 268 269
2 270 271
2 272 273
2 274 275
2 276 277
2 278 279
2 280 281
2 282 283
2 284 285
2 286 287
2 288 289
2 290 291
2 292 293
2 294 295
2 296 297
2 298 299
2 300 301
2 302 303
2 304 305
2 306 307
2 308 309
2 310 311
2 312 313
2 314 315
2 316 317
2 318 319
2 320 321
2 322 323
2 324 325
2 326 327
2 328 329
2 330 331
2 332 333
2 334 335
2 336 337
2 338 339
2 340 341
2 342 343
2 344 345
2 346 347
2 348 349
2 350 351
2 352 353
2 354 355
2 356 357
2 358 359
2 360 361
2 362 363
2 364 365
2 366 367
2 368 369
2 370 371
2 372 373
2 374 375
POINT_DATA 376
SCALARS id int 1
LOOKUP_TABLE default
0
25
1
26
2
27
3
28
4
29
5
30
6
31
7
32
8
58
9
34
10
35
11
36
12
37
14
39
15
40
16
41
17
42
18
43
19
44
20
45
21
46
22
47
23
48
24
49
25
50
26
51
27
52
28
53
29
54
30
50
31
56
32
57
34
59
36
61
37
62
40
65
41
66
42
67
43
93
44
69
45
70
46
71
47
72
48
73
50
75
51
76
52
77
53
78
54
79
55
80
56
81
57
82
58
83
59
84
61
86
62
87
65
90
66
91
67
92
69
94
70
95
71
96
72
97
73
98
75
100
76
101
77
102
78
103
79
104
80
105
81
106
82
107
83
108
86
111
87
112
90
115
91
116
92
117
93
118
94
119
95
120
96
121
97
122
98
123
100
125
101
126
102
127
103
128
104
129
105
130
106
131
107
132
108
133
110
135
111
136
112
137
115
140
116
141
117
142
118
143
119
144
120
145
121
146
122
147
123
148
125
150
126
151
127
152
128
153
129
154
130
155
131
156
132
157
133
158
135
160
136
161
137
162
140
165
141
166
143
168
144
169
145
170
146
171
147
172
148
173
149
174
150
175
152
177
155
180
163
188
166
191
167
192
168
193
174
199
175
200
191
216
199
224
201
226
203
228
204
229
206
231
207
232
211
236
212
237
219
244
220
245
221
246
222
247
223
248
4
4
17
4
2
4
14
4
24
4
18
4
21
4
0
4
23
4
15
4
8
4
16
4
9
4
5
4
22
4
1
4
3
4
6
4
7
4
11
4
12
4
19
4
20
4
55
4
13
4
34
4
10
4
245
5
237
5
248
5
228
5
229
5
247
5
226
5
231
5
236
5
244
5
232
5
246
5
CELL_DATA 188
VECTORS force double
-3.75185 -4.51539 -205.651 
0 0 -1818.39 
1.40537 -5.60394 -107.726 
-2.22588 -0.144318 -1740.56 
0 0 -1788.06 
1.05895 0.58345 -11.9463 
0 0 -1826.05 
0 0 -1808.4 
-2.33123 3.09163 -27.6284 
-9.29013 -5.59966 -11.145 
8.69442 3.63159 -24.5611 
0 0 -1829.05 
0 0 -1822.37 
-0.0022939 2.29006 -12.3734 
-2.17753 -2.69478 -238.998 
3.13337 2.42372 -34.953 
-0.159846 6.3622 -66.6807 
-30.4707 -20.3712 -170.825 
0 0 -1807.34 
0 0 -1815.79 
0 0 -1813.59 
0 0 -1825.6 
0 0 -1823.86 
0.486639 -0.678791 -2.72275 
-2.71356 -4.33505 -186.023 
0 0 -1348.25 
-3.56351 -1.18326 -88.8844 
-3.20312 -0.2473 -1285.24 
0 0 -1324.77 
2.27606 -0.808155 5.2777 
0 0 -1354.01 
0 0 -1340.34 
0.208301 -3.83808 -16.1813 
0 0 -1356.1 
0 0 -1350.75 
-12.7717 -0.617115 -184.896 
2.11922 2.41912 -23.8942 
2.84957 1.59862 -53.3755 
-39.4768 -19.8766 -153.822 
0 0 -1339.78 
0 0 -1346.22 
0 0 -1344.12 
0 0 -1353.71 
0 0 -1352.33 
5.79386 -2.25592 -167.641 
0 0 -816.233 
0.511203 0.606079 -72.4322 
-0.549524 -0.062343 -774.71 
0 0 -800.929 
1.21874 -5.5174 -38.9129 
0 0 -819.881 
0 0 -810.923 
-0.423992 2.87702 -14.218 
1.20133 -1.85184 -3.44728 
0 0 -821.104 
0 0 -817.456 
11.3553 -10.0313 -134.42 
-0.578067 1.44963 -13.0612 
4.41595 -0.525197 -42.096 
0 0 -810.793 
0 0 -814.915 
0 0 -813.245 
0 0 -819.715 
0 0 -818.795 
1.46448 -1.72817 -175.827 
0 0 -422.894 
4.84611 -0.0312403 -56.9724 
0.457413 0.0332062 -399.643 
0 0 -413.983 
6.68197 -1.90516 -20.6291 
0 0 -424.95 
0 0 -419.61 
-2.52897 2.15077 -4.47842 
0 0 -425.633 
0 0 -423.279 
1.29852 3.46303 -80.8765 
-0.455536 0.112555 -9.29828 
4.50757 0.0721404 -27.6229 
-15.4165 -26.2305 -126.215 
0 0 -419.827 
0 0 -422.151 
0 0 -420.907 
0 0 -424.86 
0 0 -424.337 
-23.2154 20.108 -206.972 
0 0 -220.08 
3.16449 0.872594 -31.997 
-0.0972375 -0.000779681 -207.548 
0 0 -215.406 
9.88344 -2.76582 0.289204 
0 0 -221.248 
0 0 -218.543 
2.07048 -0.0272705 0.845121 
0.142401 -0.221115 -2.53619 
0 0 -221.667 
0 0 -220.623 
-2.08014 6.61076 -37.4573 
0.653602 0.725837 -8.75366 
4.71128 0.329168 -12.1768 
1.54092 -16.4744 -99.0386 
0 0 -218.374 
0 0 -219.676 
0 0 -219.29 
0 0 -221.189 
0 0 -220.907 
-1.08124 10.0694 -220.974 
0 0 -95.1816 
5.00348 0.256073 -13.4535 
0.00746659 -0.00125436 -89.8529 
0 0 -94.9663 
-1.0241 1.04994 13.9549 
0 0 -95.7227 
0 0 -96.4538 
-0.465379 0.165508 -12.4912 
1.23772 0.259099 -0.988068 
0 0 -95.9141 
0 0 -97.4224 
1.09244 3.03651 5.32049 
-1.84456 -3.58569 -20.1689 
-0.519366 2.19884 -61.5671 
0 0 -94.3913 
0 0 -94.9962 
0 0 -96.7933 
0 0 -95.698 
0 0 -95.5639 
1.79788 -3.67394 21.4551 
21.5822 -17.089 -201.71 
0.631763 -1.02571 2.25271 
-0.487713 0.956071 14.7898 
-58.984 -53.0966 -226.977 
-0.0103887 -12.4725 -78.5238 
8.91583 0.669948 -55.6137 
4.90871 6.4059 -26.9197 
-0.880762 -2.00553 -6.76516 
27.0302 3.06138 -53.6975 
9.81947 15.2191 -68.4623 
-1.28113 0.56986 -8.24779 
0 0 -1017.94 
0.0006286 0.000112132 -758.275 
0 0 -899.019 
0 0 -1022 
0 0 -907.544 
0 0 -1024.95 
0 0 -914.755 
0 0 -1013.39 
0 0 -1017.16 
0 0 -910.783 
0 0 -1021.35 
0 0 -1021.18 
0 0 2070.52 
1.92556 -9.42687 80.4528 
-4.02216 7.48874 119.505 
-1.67937 -3.35586 28.9079 
-2.13055 -4.71141 14.001 
23.9406 16.0811 189.83 
0 0 2099.61 
2.14261 7.53708 212.237 
0 0 2111.06 
-7.1006 2.7239 260.201 
3.44943 2.22979 44.0067 
-2.53793 -2.7998 48.0468 
9.0353 5.13012 24.5519 
-2.68061 -0.42034 30.1256 
0 0 2112.99 
0 0 2104.78 
0.20941 -0.00919797 2018.19 
0 0 2113.54 
0 0 2093.61 
0 0 2117.08 
0 0 2109.64 
0 0 2092.23 
0 0 2101.84 
-3.84477 18.4916 56.5218 
0.00497744 1.45241 9.01595 
-10.1768 1.05042 17.9547 
-9.82155 3.96192 36.2048 
0 0 -1370.01 
0 0 -1274.9 
0 0 -1373.5 
0.0005734 8.37969e-05 -1223.24 
0 0 -1263.96 
0 0 -1372.22 
0 0 -1369.83 
0 0 -1373.66 
0 0 -1379.02 
0 0 -1367.74 
0 0 -1267.27 
0 0 -1272.28 
VECTORS moment double
0 0 0 
0 0 0 
0 0 0 
0 0 0 
0 0 0 
0 0 0 
0 0 0 
0 0 0 
0 0 0 
0 0 0 
0 0 0 
0 0 0 
0 0 0 
0 0 0 
0 0 0 
0 0 0 
0 0 0 
0 0 0 
0 0 0 
0 0 0 
0 0 0 
0 0 0 
0 0 0 
0 0 0 
0 0 0 
0 0 0 
0 0 0 
0 0 0 
0 0 0 
0 0 0 
0 0 0 
0 0 0 
0 0 0 
0 0 0 
0 0 0 
0 0 0 
0 0 0 
0 0 0 
0 0 0 
0 0 0 
0 0 0 
0 0 0 
0 0 0 
0 0 0 
0 0 0 
0 0 0 
0 0 0 
0 0 0 
0 0 0 
0 0 0 
0 0 0 
0 0 0 
0 0 0 
0 0 0 
0 0 0 
0 0 0 
0 0 0 
0 0 0 
0 0 0 
0 0 0 
0 0 0 
0 0 0 
0 0 0 
0 0 0 
0 0 0 
0 0 0 
0 0 0 
0 0 0 
0 0 0 
0 0 0 
0 0 0 
0 0 0 
0 0 0 
0 0 0 
0 0 0 
0 0 0 
0 0 0 
0 0 0 
0 0 0 
0 0 0 
0 0 0 
0 0 0 
0 0 0 
0 0 0 
0 0 0 
0 0 0 
0 0 0 
0 0 0 
0 0 0 
0 0 0 
0 0 0 
0 0 0 
0 0 0 
0 0 0 
0 0 0 
0 0 0 
0 0 0 
0 0 0 
0 0 0 
0 0 0 
0 0 0 
0 0 0 
0 0 0 
0 0 0 
0 0 0 
0 0 0 
0 0 0 
0 0 0 
0 0 0 
0 0 0 
0 0 0 
0 0 0 
0 0 0 
0 0 0 
0 0 0 
0 0 0 
0 0 0 
0 0 0 
0 0 0 
0 0 0 
0 0 0 
0 0 0 
0 0 0 
0 0 0 
0 0 0 
0 0 0 
0 0 0 
0 0 0 
0 0 0 
0 0 0 
0 0 0 
0 0 0 
0 0 0 
0 0 0 
0 0 0 
0 0 0 
0 0 0 
0 0 0 
0 0 0 
0 0 0 
0 0 0 
0 0 0 
0 0 0 
0 0 0 
0 0 0 
0 0 0 
0 0 0 
0 0 0 
0 0 0 
0 0 0 
0 0 0 
0 0 0 
0 0 0 
0 0 0 
0 0 0 
0 0 0 
0 0 0 
0 0 0 
0 0 0 
0 0 0 
0 0 0 
0 0 0 
0 0 0 
0 0 0 
0 0 0 
0 0 0 
0 0 0 
0 0 0 
0 0 0 
0 0 0 
0 0 0 
0 0 0 
0 0 0 
0 0 0 
0 0 0 
0 0 0 
0 0 0 
0 0 0 
0 0 0 
0 0 0 
0 0 0 
0 0 0 
0 0 0 
0 0 0 
0 0 0 
0 0 0 
0 0 0 
0 0 0 
SCALARS num_collisions int 1
LOOKUP_TABLE default
1 
1 
1 
1 
1 
1 
1 
1 
1 
1 
1 
1 
1 
1 
1 
1 
1 
1 
1 
1 
1 
1 
1 
1 
1 
1 
1 
1 
1 
1 
1 
1 
1 
1 
1 
1 
1 
1 
1 
1 
1 
1 
1 
1 
1 
1 
1 
1 
1 
1 
1 
1 
1 
1 
1 
1 
1 
1 
1 
1 
1 
1 
1 
1 
1 
1 
1 
1 
1 
1 
1 
1 
1 
1 
1 
1 
1 
1 
1 
1 
1 
1 
1 
1 
1 
1 
1 
1 
1 
1 
1 
1 
1 
1 
1 
1 
1 
1 
1 
1 
1 
1 
1 
1 
1 
1 
1 
1 
1 
1 
1 
1 
1 
1 
1 
1 
1 
1 
1 
1 
1 
1 
1 
1 
1 
1 
1 
1 
1 
1 
1 
1 
1 
1 
1 
1 
1 
1 
1 
1 
1 
1 
1 
1 
1 
1 
1 
1 
1 
1 
1 
1 
1 
1 
1 
1 
1 
1 
1 
1 
1 
1 
1 
1 
1 
1 
1 
1 
1 
1 
1 
1 
1 
1 
1 
1 
1 
1 
1 
1 
1 
1 
1 
1 
1 
1 
1 
1 
VECTORS pos double
-0.390415 -0.40799 -0.424123 
-0.403333 -0.203333 -0.401777 
-0.395908 -0.00377882 -0.424468 
-0.403264 0.197025 -0.401709 
-0.402763 0.397237 -0.401748 
-0.269746 -0.404408 -0.422501 
-0.203538 -0.203538 -0.401785 
-0.203218 -0.00321788 -0.401768 
-0.197812 0.224731 -0.428836 
-0.201315 0.395135 -0.455257 
-0.032155 -0.381152 -0.415372 
-0.00366947 -0.203669 -0.401788 
-0.00360232 -0.00360232 -0.401782 
-0.00328565 0.370062 -0.440046 
0.196983 -0.398626 -0.425737 
0.195642 -0.189037 -0.425616 
0.209296 0.000264287 -0.425599 
0.172413 0.16447 -0.445409 
0.196913 0.396913 -0.401766 
0.396713 -0.403287 -0.401775 
0.39661 -0.20339 -0.401774 
0.396488 -0.00351175 -0.401784 
0.396508 0.196508 -0.401783 
0.371312 0.39686 -0.446397 
-0.387004 -0.403189 -0.349408 
-0.403333 -0.203333 -0.302739 
-0.387732 0.0012351 -0.346287 
-0.403029 0.197043 -0.302631 
-0.402763 0.397237 -0.302695 
-0.34572 -0.407881 -0.334682 
-0.203538 -0.203538 -0.302751 
-0.203218 -0.00321788 -0.302725 
-0.195576 0.41406 -0.411761 
-0.00366947 -0.203669 -0.302756 
-0.00360232 -0.00360232 -0.302747 
0.199352 -0.400442 -0.346735 
0.185986 -0.188487 -0.344326 
0.214526 -0.00080158 -0.349321 
0.181225 0.174455 -0.425229 
0.196913 0.396913 -0.302723 
0.396713 -0.403287 -0.302736 
0.39661 -0.20339 -0.302734 
0.396488 -0.00351175 -0.30275 
0.396508 0.196508 -0.302748 
-0.389689 -0.399501 -0.270638 
-0.403333 -0.203333 -0.203427 
-0.395029 0.000103563 -0.272944 
-0.402895 0.197055 -0.203288 
-0.402763 0.397237 -0.20337 
-0.163242 -0.408019 -0.385578 
-0.203538 -0.203538 -0.203442 
-0.203218 -0.00321788 -0.203409 
-0.18448 0.19873 -0.326999 
-0.193034 0.415887 -0.322449 
-0.00366947 -0.203669 -0.203448 
-0.00360232 -0.00360232 -0.203436 
0.203256 -0.396175 -0.266641 
0.188973 -0.203358 -0.277326 
0.213596 0.00212006 -0.273071 
0.196913 0.396913 -0.203406 
0.396713 -0.403287 -0.203422 
0.39661 -0.20339 -0.203419 
0.396488 -0.00351175 -0.203441 
0.396508 0.196508 -0.203438 
-0.391796 -0.399398 -0.189509 
-0.403333 -0.203333 -0.103817 
-0.388418 -0.00271828 -0.187197 
-0.402956 0.19705 -0.103659 
-0.402763 0.397237 -0.103753 
-0.183061 -0.407341 -0.325942 
-0.203538 -0.203538 -0.103833 
-0.203218 -0.00321788 -0.103796 
-0.185487 0.202994 -0.275118 
-0.00366947 -0.203669 -0.10384 
-0.00360232 -0.00360232 -0.103827 
0.199737 -0.391543 -0.190337 
0.205535 -0.211815 -0.164493 
0.210696 0.00115901 -0.198086 
0.198253 0.189922 -0.325757 
0.196913 0.396913 -0.103793 
0.396713 -0.403287 -0.103811 
0.39661 -0.20339 -0.103808 
0.396488 -0.00351175 -0.103832 
0.396508 0.196508 -0.103829 
-0.389999 -0.39865 -0.111244 
-0.403333 -0.203333 -0.00398053 
-0.387346 -0.00191221 -0.101596 
-0.402953 0.197049 -0.00381389 
-0.402763 0.397237 -0.00391288 
-0.222819 -0.402004 -0.25537 
-0.203538 -0.203538 -0.00399806 
-0.203218 -0.00321788 -0.00395878 
-0.206691 0.197367 -0.191715 
0.0156754 -0.388515 -0.103371 
-0.00366947 -0.203669 -0.00400524 
-0.00360232 -0.00360232 -0.0039906 
0.205798 -0.392666 -0.114267 
0.200998 -0.211545 -0.0794388 
0.211407 0.0016673 -0.121673 
0.204086 0.207704 -0.230863 
0.196913 0.396913 -0.00395569 
0.396713 -0.403287 -0.00397483 
0.39661 -0.20339 -0.00397076 
0.396488 -0.00351175 -0.00399694 
0.396508 0.196508 -0.00399314 
-0.384695 -0.409245 -0.0335015 
-0.403333 -0.203333 0.0959668 
-0.392607 -0.00863775 -0.025468 
-0.402948 0.19705 0.0961369 
-0.402763 0.397237 0.0960357 
-0.197136 -0.415655 -0.133509 
-0.203538 -0.203538 0.095949 
-0.203218 -0.00321788 0.0959889 
-0.219747 0.209538 -0.119288 
0.00211015 -0.387582 -0.0204974 
-0.00366947 -0.203669 0.0959417 
-0.00360232 -0.00360232 0.0959566 
0.208804 -0.394694 -0.0340634 
0.190297 -0.211214 -0.00500035 
0.205031 0.208805 -0.15683 
0.196913 0.396913 0.0959921 
0.396713 -0.403287 0.0959726 
0.39661 -0.20339 0.0959768 
0.396488 -0.00351175 0.0959501 
0.396508 0.196508 0.095954 
0.406873 0.392094 -0.0722219 
-0.391849 -0.402111 0.0445767 
-0.411053 -0.0135015 0.0470391 
-0.213519 -0.404737 -0.0559199 
-0.0115719 0.186866 0.0340553 
0.205117 -0.194087 0.090145 
0.186016 0.00832402 0.0325616 
0.211538 0.204469 -0.0531717 
0.382496 0.397519 0.00597918 
-0.38228 -0.405159 0.12556 
0.193846 -0.194431 0.18088 
0.390739 0.395781 0.105715 
-0.403333 -0.203333 0.400525 
-0.40295 0.19705 0.400609 
-0.402763 0.397237 0.400496 
-0.203538 -0.203538 0.400526 
-0.203218 -0.00321788 0.400493 
-0.00366947 -0.203669 0.400529 
-0.00360232 -0.00360232 0.400495 
0.196913 0.396913 0.400526 
0.396713 -0.403287 0.400526 
0.39661 -0.20339 0.400496 
0.396488 -0.00351175 0.400525 
0.396508 0.196508 0.400526 
-0.402763 0.397237 -0.5 
0.20147 0.00652857 -0.500021 
-0.395039 -0.00932562 -0.50003 
-0.017839 0.396207 -0.500004 
0.376183 0.446254 -0.500007 
0.184587 0.176425 -0.500071 
0.39661 -0.20339 -0.5 
-0.392089 -0.405146 -0.50005 
0.396508 0.196508 -0.5 
0.194259 -0.395583 -0.500059 
-0.195147 0.213995 -0.500013 
0.185814 -0.190341 -0.500012 
-0.236968 0.36864 -0.500004 
-0.260749 -0.419196 -0.500008 
0.396488 -0.00351175 -0.5 
-0.403333 -0.203333 -0.5 
-0.40331 0.197023 -0.5 
-0.203538 -0.203538 -0.5 
-0.203218 -0.00321788 -0.5 
-0.00366947 -0.203669 -0.5 
-0.00360232 -0.00360232 -0.5 
0.196913 0.396913 -0.5 
0.396713 -0.403287 -0.5 
-0.163301 -0.434117 -0.500017 
0.0395113 0.165872 -0.500002 
-0.137208 0.406596 -0.500005 
-0.00483151 -0.387914 -0.500005 
0.396713 -0.403287 0.5 
-0.00360232 -0.00360232 0.5 
0.396508 0.196508 0.5 
-0.40295 0.19705 0.5 
-0.402763 0.397237 0.5 
0.396488 -0.00351175 0.5 
-0.403333 -0.203333 0.5 
-0.203538 -0.203538 0.5 
-0.00366947 -0.203669 0.5 
0.196913 0.396913 0.5 
-0.203218 -0.00321788 0.5 
0.39661 -0.20339 0.5 
VECTORS dir_n double
-0.0710498 -0.00946978 -0.997428 
5.49937e-19 0 -1 
0.159865 -0.0392736 -0.986357 
-0.000937119 -3.72417e-05 -1 
5.59267e-19 0 -1 
0.515738 -0.238846 -0.82278 
5.47629e-19 0 -1 
5.52974e-19 0 -1 
0.487963 0.0537816 -0.871206 
-0.767064 -0.46703 -0.439881 
-0.185397 -0.0810262 -0.979318 
5.46731e-19 0 -1 
5.48735e-19 0 -1 
-0.513178 0.369146 -0.774842 
0.217813 -0.0407796 -0.975138 
-0.240576 0.127746 -0.962187 
-0.144376 -0.0282001 -0.989121 
-0.438811 0.800111 -0.408983 
5.533e-19 0 -1 
5.50726e-19 0 -1 
5.51394e-19 0 -1 
5.47766e-19 0 -1 
5.48287e-19 0 -1 
-0.217648 0.868969 -0.444435 
0.154673 0.115853 -0.981149 
7.41705e-19 0 -1 
0.11969 -0.101569 -0.987602 
-0.00380482 -0.000320515 -0.999993 
7.54845e-19 0 -1 
0.89343 -0.372381 -0.251227 
7.38545e-19 0 -1 
7.46078e-19 0 -1 
0.466038 -0.549551 -0.693399 
7.37408e-19 0 -1 
7.40329e-19 0 -1 
0.405058 0.0641262 -0.912039 
-0.0200098 0.0753146 -0.996959 
-0.10522 -0.0641307 -0.992379 
0.313658 -0.638182 -0.703095 
7.46393e-19 0 -1 
7.42821e-19 0 -1 
7.43979e-19 0 -1 
7.38711e-19 0 -1 
7.39464e-19 0 -1 
0.274639 0.141013 -0.951151 
1.22514e-18 0 -1 
0.373304 0.00959565 -0.92766 
0.00111383 6.34281e-05 -0.999999 
1.24855e-18 0 -1 
0.0497313 0.0314566 -0.998267 
1.21969e-18 0 -1 
1.23316e-18 0 -1 
-0.853665 0.157971 -0.496287 
0.340483 0.320815 -0.883826 
1.21787e-18 0 -1 
1.22331e-18 0 -1 
-0.22369 0.228909 -0.947398 
-0.254375 0.463256 -0.848933 
-0.0266016 -0.0474943 -0.998517 
1.23336e-18 0 -1 
1.22712e-18 0 -1 
1.22964e-18 0 -1 
1.21994e-18 0 -1 
1.22131e-18 0 -1 
0.0882506 0.101744 -0.990889 
2.36466e-18 0 -1 
0.39361 0.0672205 -0.916817 
0.000104184 4.94072e-05 -1 
2.41556e-18 0 -1 
0.665947 -0.394616 -0.633082 
2.35322e-18 0 -1 
2.38317e-18 0 -1 
-0.880951 0.0586806 0.469555 
2.34944e-18 0 -1 
2.36251e-18 0 -1 
0.0278318 0.218478 -0.975445 
-0.0959575 0.457873 -0.883824 
0.0693735 0.058437 -0.995878 
0.434616 -0.170866 -0.884259 
2.38194e-18 0 -1 
2.36882e-18 0 -1 
2.37582e-18 0 -1 
2.35372e-18 0 -1 
2.35662e-18 0 -1 
0.155111 0.115107 -0.981168 
4.54379e-18 0 -1 
0.463759 0.068283 -0.883326 
-0.000156108 -2.39345e-05 -1 
4.6424e-18 0 -1 
0.0886107 -0.261874 -0.961026 
4.51982e-18 0 -1 
4.57577e-18 0 -1 
-0.201633 0.0918118 0.975149 
0.06872 0.300696 -0.951241 
4.51127e-18 0 -1 
4.53261e-18 0 -1 
0.262566 0.159598 -0.951624 
-0.174287 -0.0389843 -0.983923 
0.0701377 0.0778814 -0.994492 
-0.443697 -0.0248222 -0.895833 
4.5793e-18 0 -1 
4.55215e-18 0 -1 
4.56016e-18 0 -1 
4.52101e-18 0 -1 
4.5268e-18 0 -1 
0.127296 0.154785 -0.979713 
1.05062e-17 0 -1 
-0.176415 0.0769196 -0.981306 
5.3318e-05 6.99136e-07 -1 
1.05301e-17 0 -1 
0.480557 0.509947 0.713455 
1.04468e-17 0 -1 
1.03677e-17 0 -1 
0.432173 0.178916 -0.883864 
-0.118921 0.302471 -0.945711 
1.0426e-17 0 -1 
1.02646e-17 0 -1 
-0.461955 -0.166688 0.871099 
-0.135707 0.22134 -0.965708 
-0.18943 0.26936 -0.944225 
1.05942e-17 0 -1 
1.05267e-17 0 -1 
1.03313e-17 0 -1 
1.04495e-17 0 -1 
1.04642e-17 0 -1 
0.0216734 -0.236778 0.971322 
0.188197 0.162894 -0.968528 
-0.171874 -0.185359 0.967523 
0.091893 0.104407 0.99028 
-0.095902 -0.155006 -0.983248 
-0.195746 0.422227 -0.885103 
-0.0156322 0.0226803 -0.999621 
-0.181218 0.101135 -0.978229 
0.0800193 -0.166609 -0.982771 
-0.106981 0.107806 -0.988399 
-0.139269 0.23245 -0.962586 
-0.087498 0.126054 -0.988157 
9.82373e-19 0 -1 
1.38014e-06 2.37369e-07 -1 
1.11232e-18 0 -1 
9.78476e-19 0 -1 
1.10188e-18 0 -1 
9.75656e-19 0 -1 
1.09319e-18 0 -1 
9.8679e-19 0 -1 
9.83129e-19 0 -1 
1.09796e-18 0 -1 
9.79096e-19 0 -1 
9.79262e-19 0 -1 
4.82972e-19 0 1 
6.09608e-17 -1.55054e-17 1 
-2.92077e-17 1.17874e-16 1 
1.74791e-16 6.78256e-17 1 
2.4316e-16 2.44969e-17 1 
1.81983e-17 1.37244e-17 1 
4.76278e-19 0 1 
7.48821e-18 -8.36912e-17 1 
4.73696e-19 0 1 
4.47343e-18 8.49321e-17 1 
-4.58389e-17 1.4033e-16 1 
-1.63374e-16 7.78898e-17 1 
-5.86775e-17 5.19607e-17 1 
-4.67673e-17 2.26965e-17 1 
4.73263e-19 0 1 
4.75109e-19 0 1 
4.95494e-19 0 1 
4.73139e-19 0 1 
4.77643e-19 0 1 
4.72349e-19 0 1 
4.74015e-19 0 1 
4.77958e-19 0 1 