# vtk DataFile Version 2.0
Generated by NetDEM
ASCII 
DATASET POLYDATA
POINTS 822 double
-0.418682 -0.407059 -0.463705 
-0.429257 -0.407746 -0.392879 
-0.44905 -0.197312 -0.450018 
-0.449998 -0.262543 -0.374238 
-0.44905 -0.197312 -0.450018 
-0.420415 -0.116096 -0.406286 
-0.411265 -0.00650314 -0.464259 
-0.371032 0.0673229 -0.406284 
-0.411265 -0.00650314 -0.464259 
-0.409052 -0.0185385 -0.385535 
-0.450007 0.110286 -0.450027 
-0.371032 0.0673229 -0.406284 
-0.450007 0.110286 -0.450027 
-0.449621 0.173355 -0.372443 
-0.271088 -0.429622 -0.459146 
-0.334405 -0.407313 -0.404944 
-0.271088 -0.429622 -0.459146 
-0.264493 -0.438858 -0.363272 
-0.307643 -0.211689 -0.450054 
-0.32087 -0.204865 -0.351206 
-0.307643 -0.211689 -0.450054 
-0.232775 -0.159686 -0.40896 
-0.194948 -0.00924546 -0.450042 
-0.129429 -0.0555673 -0.390392 
-0.194948 -0.00924546 -0.450042 
-0.240777 -0.00497777 -0.351837 
-0.194948 -0.00924546 -0.450042 
-0.177298 0.0790417 -0.450315 
-0.172904 0.172576 -0.463836 
-0.177298 0.0790417 -0.450315 
-0.172904 0.172576 -0.463836 
-0.24548 0.187078 -0.385661 
-0.254678 0.36611 -0.462897 
-0.230679 0.327504 -0.39382 
-0.254678 0.36611 -0.462897 
-0.354703 0.379939 -0.403605 
-0.0561125 -0.396369 -0.460721 
-0.0857063 -0.389047 -0.395809 
-0.145216 -0.13427 -0.450023 
-0.129429 -0.0555673 -0.390392 
-0.145216 -0.13427 -0.450023 
-0.232775 -0.159686 -0.40896 
-0.0554912 -0.0869051 -0.450027 
-0.00704124 -0.0225738 -0.393305 
0.0363513 0.178981 -0.452321 
-0.0554978 0.126642 -0.442788 
0.0363513 0.178981 -0.452321 
0.112006 0.137909 -0.39799 
-0.0302561 0.319669 -0.441469 
-0.11181 0.313514 -0.399793 
-0.0302561 0.319669 -0.441469 
-0.00599635 0.413434 -0.368782 
0.19316 -0.401398 -0.462867 
0.203818 -0.413665 -0.390158 
0.168301 -0.210461 -0.46298 
0.16541 -0.206264 -0.389499 
0.173108 -0.0073172 -0.462682 
0.174859 0.0138127 -0.385417 
0.160675 0.209135 -0.465052 
0.119278 0.301481 -0.426261 
0.300314 0.402885 -0.415985 
0.371432 0.439093 -0.465052 
0.450002 -0.407923 -0.450029 
0.436492 -0.356308 -0.36548 
0.450002 -0.407923 -0.450029 
0.393562 -0.450007 -0.379035 
0.430807 -0.3033 -0.450038 
0.436492 -0.356308 -0.36548 
0.380267 0.0906803 -0.450022 
0.322966 0.0632722 -0.372793 
0.380267 0.0906803 -0.450022 
0.450018 0.139564 -0.397666 
0.371432 0.439093 -0.465052 
0.397405 0.45019 -0.37021 
-0.429257 -0.407746 -0.392879 
-0.43472 -0.440289 -0.326219 
-0.429257 -0.407746 -0.392879 
-0.334405 -0.407313 -0.404944 
-0.409052 -0.0185385 -0.385535 
-0.31511 -0.0229804 -0.360754 
-0.409052 -0.0185385 -0.385535 
-0.420415 -0.116096 -0.406286 
-0.449621 0.173355 -0.372443 
-0.449851 0.27303 -0.380454 
-0.334405 -0.407313 -0.404944 
-0.298678 -0.316972 -0.347641 
-0.232775 -0.159686 -0.40896 
-0.177119 -0.171111 -0.326691 
-0.154105 -0.0985194 -0.203136 
-0.188987 -0.157776 -0.130533 
-0.154105 -0.0985194 -0.203136 
-0.165966 -0.071743 -0.298742 
-0.154105 -0.0985194 -0.203136 
-0.236353 -0.0621556 -0.159404 
-0.154105 -0.0985194 -0.203136 
-0.114841 -0.0308364 -0.140877 
-0.146665 0.402751 -0.44742 
-0.222171 0.447076 -0.411336 
-0.146665 0.402751 -0.44742 
-0.11181 0.313514 -0.399793 
-0.0857063 -0.389047 -0.395809 
-0.00238077 -0.338737 -0.346803 
-0.0857063 -0.389047 -0.395809 
-0.160367 -0.376858 -0.333776 
0.315457 -0.238399 -0.109959 
0.296313 -0.161933 -0.175041 
-0.03218 -0.013432 -0.302766 
-0.00704124 -0.0225738 -0.393305 
-0.03218 -0.013432 -0.302766 
0.00458116 -0.00625875 -0.210055 
0.0267272 0.259645 -0.449999 
0.0864975 0.236775 -0.366309 
0.0267272 0.259645 -0.449999 
-0.0371502 0.222832 -0.386369 
0.119278 0.301481 -0.426261 
0.0864975 0.236775 -0.366309 
0.119278 0.301481 -0.426261 
0.0666814 0.397205 -0.409086 
0.203818 -0.413665 -0.390158 
0.202388 -0.435626 -0.319137 
0.16541 -0.206264 -0.389499 
0.238434 -0.14268 -0.38872 
0.174859 0.0138127 -0.385417 
0.162125 0.0563694 -0.329053 
0.196335 0.112518 -0.456073 
0.273543 0.066091 -0.443741 
0.196335 0.112518 -0.456073 
0.261985 0.175495 -0.443919 
0.196335 0.112518 -0.456073 
0.112006 0.137909 -0.39799 
0.393562 -0.450007 -0.379035 
0.449997 -0.44595 -0.296597 
0.393562 -0.450007 -0.379035 
0.341757 -0.410631 -0.30311 
0.436492 -0.356308 -0.36548 
0.450013 -0.310544 -0.277617 
0.436492 -0.356308 -0.36548 
0.353489 -0.313985 -0.329182 
0.450018 0.139564 -0.397666 
0.386757 0.166347 -0.324991 
0.450018 0.139564 -0.397666 
0.449976 0.233977 -0.364738 
0.425041 0.340076 -0.456247 
0.437535 0.255287 -0.460018 
0.425041 0.340076 -0.456247 
0.432331 0.368245 -0.37601 
-0.43472 -0.440289 -0.326219 
-0.434344 -0.452843 -0.243823 
-0.32087 -0.204865 -0.351206 
-0.319416 -0.139766 -0.275357 
-0.31511 -0.0229804 -0.360754 
-0.240777 -0.00497777 -0.351837 
-0.31511 -0.0229804 -0.360754 
-0.295145 -0.0407726 -0.270113 
-0.291221 0.267363 -0.450014 
-0.33271 0.232707 -0.365895 
-0.181422 -0.375098 -0.451258 
-0.158809 -0.448133 -0.391464 
0.200242 -0.328244 -0.235347 
0.255897 -0.296908 -0.298507 
-0.177298 0.0790417 -0.450315 
-0.274416 0.0929655 -0.403791 
-0.346745 0.333843 -0.331457 
-0.354703 0.379939 -0.403605 
0.0433603 -0.438779 -0.449683 
0.0948869 -0.452447 -0.355549 
0.0433603 -0.438779 -0.449683 
0.00949659 -0.434525 -0.354831 
0.20859 -0.284194 -0.115381 
0.198012 -0.244294 -0.0261746 
0.20859 -0.284194 -0.115381 
0.297864 -0.325267 -0.154493 
0.209572 0.067472 -0.192053 
0.203484 0.139437 -0.25695 
0.209572 0.067472 -0.192053 
0.185254 0.0439581 -0.106471 
-0.0371502 0.222832 -0.386369 
0.00764013 0.293833 -0.338876 
0.255209 0.331379 -0.463888 
0.330845 0.307705 -0.412737 
0.202388 -0.435626 -0.319137 
0.262859 -0.446891 -0.240659 
0.202388 -0.435626 -0.319137 
0.176856 -0.426777 -0.220542 
0.0512505 -0.0932305 -0.449989 
0.13479 -0.0969985 -0.397515 
0.162125 0.0563694 -0.329053 
0.125435 0.0635183 -0.266303 
0.162125 0.0563694 -0.329053 
0.196831 -0.0313381 -0.272467 
0.273543 0.066091 -0.443741 
0.322966 0.0632722 -0.372793 
0.112006 0.137909 -0.39799 
0.0498508 0.119227 -0.326508 
0.378765 -0.217664 -0.450067 
0.336447 -0.176721 -0.36926 
0.378765 -0.217664 -0.450067 
0.450026 -0.208708 -0.38055 
0.381381 -0.108299 -0.450044 
0.347325 -0.0758019 -0.361831 
0.381381 -0.108299 -0.450044 
0.449999 -0.106485 -0.377346 
0.449976 0.233977 -0.364738 
0.448492 0.219194 -0.265888 
0.449976 0.233977 -0.364738 
0.437535 0.255287 -0.460018 
-0.434344 -0.452843 -0.243823 
-0.389745 -0.439043 -0.168603 
-0.177119 -0.171111 -0.326691 
-0.117241 -0.204986 -0.254146 
-0.177119 -0.171111 -0.326691 
-0.230502 -0.171584 -0.24214 
-0.240777 -0.00497777 -0.351837 
-0.193391 0.0777626 -0.339265 
-0.274416 0.0929655 -0.403791 
-0.371032 0.0673229 -0.406284 
-0.361194 0.140688 -0.339067 
-0.371032 0.0673229 -0.406284 
-0.361194 0.140688 -0.339067 
-0.33271 0.232707 -0.365895 
-0.158809 -0.448133 -0.391464 
-0.160367 -0.376858 -0.333776 
-0.158809 -0.448133 -0.391464 
-0.264493 -0.438858 -0.363272 
-0.129429 -0.0555673 -0.390392 
-0.165966 -0.071743 -0.298742 
-0.242961 0.0473714 -0.217525 
-0.295145 -0.0407726 -0.270113 
-0.242961 0.0473714 -0.217525 
-0.245676 0.0342654 -0.118428 
-0.0554978 0.126642 -0.442788 
-0.135775 0.146359 -0.395663 
0.0948869 -0.452447 -0.355549 
0.0814579 -0.418038 -0.269952 
0.449999 -0.328745 -0.0641153 
0.40728 -0.282207 -0.141618 
0.019993 0.0477069 -0.450088 
0.0322818 0.0437099 -0.354737 
0.0666814 0.397205 -0.409086 
-0.00249085 0.437708 -0.464722 
0.0666814 0.397205 -0.409086 
-0.00599635 0.413434 -0.368782 
0.262859 -0.446891 -0.240659 
0.302324 -0.388148 -0.207304 
0.262859 -0.446891 -0.240659 
0.269157 -0.43198 -0.126072 
0.15664 -0.317937 -0.394161 
0.0994846 -0.289016 -0.301107 
0.125435 0.0635183 -0.266303 
0.0427088 0.07117 -0.253967 
0.125435 0.0635183 -0.266303 
0.111585 -0.0223977 -0.204503 
0.261985 0.175495 -0.443919 
0.332924 0.2088 -0.398116 
0.261985 0.175495 -0.443919 
0.238107 0.233756 -0.378768 
0.145639 0.450003 -0.450016 
0.142514 0.449744 -0.350074 
0.353489 -0.313985 -0.329182 
0.255897 -0.296908 -0.298507 
0.353489 -0.313985 -0.329182 
0.361229 -0.294794 -0.231378 
0.449999 -0.106485 -0.377346 
0.437217 -0.036999 -0.306588 
0.449999 -0.106485 -0.377346 
0.450003 -0.145338 -0.285219 
0.386757 0.166347 -0.324991 
0.305663 0.122669 -0.28608 
0.386757 0.166347 -0.324991 
0.373345 0.16673 -0.225907 
0.432331 0.368245 -0.37601 
0.39937 0.299575 -0.3086 
0.432331 0.368245 -0.37601 
0.438984 0.400056 -0.295433 
-0.389745 -0.439043 -0.168603 
-0.369797 -0.363138 -0.115163 
-0.389745 -0.439043 -0.168603 
-0.46177 -0.452406 -0.121678 
-0.369797 -0.363138 -0.115163 
-0.385233 -0.26865 -0.144036 
-0.295145 -0.0407726 -0.270113 
-0.319416 -0.139766 -0.275357 
-0.295145 -0.0407726 -0.270113 
-0.353451 0.0118074 -0.23086 
0.355899 -0.212078 -0.0221598 
0.448534 -0.19824 -0.0571091 
0.355899 -0.212078 -0.0221598 
0.330041 -0.270747 0.0545274 
0.355899 -0.212078 -0.0221598 
0.3375 -0.171454 0.0671991 
0.0203399 -0.119317 -0.346747 
0.0139174 -0.103038 -0.248291 
0.0322818 0.0437099 -0.354737 
0.0498508 0.119227 -0.326508 
-0.00249085 0.437708 -0.464722 
-0.00599635 0.413434 -0.368782 
0.302324 -0.388148 -0.207304 
0.297864 -0.325267 -0.154493 
0.0427088 0.07117 -0.253967 
0.00214843 0.112555 -0.184974 
0.238107 0.233756 -0.378768 
0.227996 0.183456 -0.318871 
0.349198 0.450017 -0.263184 
0.249374 0.450003 -0.2688 
0.349198 0.450017 -0.263184 
0.438984 0.400056 -0.295433 
0.349198 0.450017 -0.263184 
0.381838 0.427115 -0.186795 
0.450026 -0.208708 -0.38055 
0.391386 -0.225368 -0.301304 
-0.46177 -0.452406 -0.121678 
-0.443941 -0.456946 -0.000777711 
-0.319416 -0.139766 -0.275357 
-0.319513 -0.118763 -0.17761 
-0.319416 -0.139766 -0.275357 
-0.338689 -0.218709 -0.217098 
-0.450887 -0.0309191 -0.316264 
-0.44795 -0.0970759 -0.256895 
-0.160367 -0.376858 -0.333776 
-0.221288 -0.351472 -0.234509 
-0.160367 -0.376858 -0.333776 
-0.138333 -0.414724 -0.242524 
-0.0809882 -0.211909 -0.440687 
0.0179472 -0.222641 -0.450062 
-0.135775 0.146359 -0.395663 
-0.193391 0.0777626 -0.339265 
-0.230679 0.327504 -0.39382 
[...]
POINT_DATA 822
SCALARS id int 1
LOOKUP_TABLE default
0
25
1
26
1
152
2
103
2
27
3
103
3
28
5
30
5
105
6
51
6
31
7
81
7
77
7
58
8
58
8
128
9
134
9
84
10
35
11
81
11
31
12
108
13
83
13
69
14
139
14
189
15
40
16
41
17
42
18
39
19
24
20
46
20
45
21
46
23
172
23
48
24
124
25
50
25
30
27
52
27
152
28
54
30
250
31
76
32
132
32
162
32
57
32
237
34
159
34
139
35
160
35
130
36
192
37
108
37
312
38
269
38
63
39
269
39
89
40
65
41
141
42
67
43
68
43
93
43
69
45
145
45
120
46
195
46
95
48
97
48
73
49
74
49
99
50
75
51
126
52
77
52
102
53
154
55
80
56
241
58
78
59
84
60
85
60
185
61
465
61
240
62
193
62
417
63
164
64
98
65
90
65
140
66
166
67
92
67
267
68
172
69
138
71
146
71
121
72
171
72
96
73
273
73
74
75
100
76
251
76
151
77
203
78
103
79
103
79
154
80
130
80
105
81
162
82
102
82
107
83
133
85
165
86
295
88
113
89
114
89
189
90
115
90
215
91
256
92
117
92
142
93
123
93
118
94
169
95
241
95
270
96
222
96
196
97
223
97
348
99
173
99
149
100
101
100
125
101
326
102
126
102
177
111
246
111
346
111
446
112
186
113
138
114
189
115
240
117
238
118
168
119
194
119
149
119
199
121
170
125
150
126
357
126
401
127
176
130
205
130
230
131
187
133
203
134
209
136
240
137
372
137
272
138
163
141
147
141
216
141
146
142
292
148
222
148
272
150
350
156
190
156
315
160
185
160
206
160
210
161
341
161
360
164
188
165
190
168
193
168
198
169
214
170
221
171
297
172
197
174
199
175
275
177
252
177
301
181
251
182
333
182
334
186
331
188
288
188
212
189
263
189
239
192
271
193
268
194
319
195
220
197
272
199
224
203
208
205
225
206
251
206
207
207
390
208
233
209
234
210
235
212
238
212
287
215
290
216
241
216
341
220
245
221
296
224
249
225
300
228
352
228
429
229
454
229
304
230
280
231
383
231
337
232
356
232
406
232
381
233
253
234
333
234
258
235
260
237
386
238
337
242
372
243
294
243
268
244
319
244
394
245
265
245
345
246
296
246
420
247
397
248
373
249
274
251
331
257
258
260
285
260
390
261
445
261
320
262
344
262
289
265
320
271
297
273
348
274
324
275
400
276
280
276
361
280
305
285
310
287
338
288
333
288
313
288
308
289
333
292
417
292
317
298
398
300
381
301
377
302
326
310
335
312
411
313
338
315
435
316
422
316
321
317
436
325
400
326
401
331
405
337
388
337
432
338
463
340
465
346
416
346
395
350
400
356
357
358
409
360
461
360
436
363
393
367
392
367
472
368
393
369
464
370
420
373
422
390
486
392
417
393
418
395
440
395
415
395
470
396
465
397
423
397
398
400
425
405
461
413
463
415
445
423
448
445
470
454
479
470
495
50
0
376
0
454
0
351
0
3
0
150
0
261
1
20
1
121
1
345
1
137
1
195
1
48
1
196
1
149
1
296
1
122
1
298
1
245
2
45
2
455
2
75
2
80
2
175
2
280
2
156
2
125
2
415
2
150
2
320
2
94
3
119
3
194
3
344
3
304
3
239
3
53
4
17
4
122
4
49
4
47
4
180
4
0
4
74
4
88
4
71
4
10
4
64
4
114
4
55
4
16
4
24
4
2
4
20
4
72
4
109
4
12
4
8
4
5
4
15
4
38
4
66
4
18
4
135
4
9
4
60
4
3
4
23
4
21
4
68
4
94
4
11
4
4
4
14
4
147
4
13
4
43
4
1
4
34
4
7
4
33
4
6
4
187
4
22
4
110
4
CELL_DATA 411
VECTORS force double
26.4926 -37.4219 65.2534 
-3.78564 32.9073 -14.35 
-9.78659 -97.3205 -64.1691 
5.38393 -51.1214 -1.52092 
8.81708 39.8914 -69.4638 
-28.4291 22.5071 -29.1693 
2.18761 -16.7907 -19.594 
43.0613 -14.0996 -38.8759 
10.1149 4.16569 -9.12107 
5.87765 -17.8731 -83.8194 
0.388319 3.1324 -29.3527 
241.584 38.5918 -470.71 
407.064 -36.4445 -207.295 
136.186 -46.8944 -240.346 
13.8343 -2.77334 -62.3217 
-0.217231 -15.4515 -22.4012 
-6.85639 -0.288002 -38.0046 
0.447892 2.75552 -14.1624 
56.9491 -0.150474 -123.343 
144.335 -7.48932 -264.677 
43.5279 60.8458 -87.0825 
-20.0261 0.225012 53.4574 
140.418 2.34057 -632.909 
-1.08348 -76.6048 -824.207 
-11.0052 7.07012 -11.0926 
-28.6981 6.76031 -2.93166 
21.181 7.68988 -137.847 
105.343 8.54789 88.6024 
48.227 -49.262 -186.274 
12.394 -13.2556 -11.4746 
-0.523107 -1.07432 6.21044 
-246.403 417.852 200.902 
-114.574 204.837 36.8969 
-196.339 325.071 443.317 
11.5266 5.13484 82.1046 
18.3966 109.246 163.185 
1.10564 1.70379 -17.3737 
155.461 33.0128 -273.559 
2.07531 47.6782 -179.497 
-96.7754 -55.4893 -93.4087 
25.2314 117.991 -22.2285 
-0.546546 -16.1564 -15.8034 
7.24286 -12.9331 45.2275 
-41.0809 -18.9463 -0.751787 
4.22861 -12.4305 15.0619 
-59.035 -13.4453 104.723 
-1.17294 -10.0446 20.9296 
-4.33613 -3.95653 -6.2198 
-1.61344 -0.230436 -3.67689 
1.50056 0.230835 -2.78688 
80.7636 -30.9353 -333.966 
45.34 -5.03478 -71.2458 
-8.15659 -19.5168 31.272 
45.1676 45.6722 64.8102 
-17.6618 19.4847 9.7304 
-93.7323 16.783 -81.5187 
-38.9485 -98.768 -641.81 
4.95767 -2.55519 3.42813 
6.63209 -10.3742 -5.04545 
8.17148 6.43079 -25.5799 
-244.55 48.9202 -391.457 
-36.5867 -32.0476 184.637 
1.25681 -0.589922 -188.504 
-42.7065 -67.2741 -320.941 
252.954 -44.1287 -125.392 
3.16231 -46.5512 -68.9249 
18.2746 -17.4767 -37.2843 
-55.225 188.891 -581.828 
125.281 -48.4343 -587.292 
51.3131 -17.3277 -172.368 
-58.168 222.234 -822.041 
31.7692 29.682 744.317 
51.7847 103.193 224.146 
4.65697 -36.3703 17.918 
1.04362 -30.9548 -65.4964 
181.373 49.6911 -84.9059 
135.429 60.5197 -23.7959 
4.18485 2.82027 -14.9915 
-19.4427 -3.87942 -29.604 
-44.0898 -37.1828 26.8562 
7.097 70.8332 60.8506 
-4.29121 -2.56133 7.23912 
-544.545 -76.4707 489.398 
-569.14 56.8395 209.823 
2.07347 -3.09678 -5.79759 
-5.755 6.08072 6.20596 
-265.344 -563.212 219.557 
6.40039 -76.8047 -19.7379 
-5.51575 -9.01996 576.306 
-0.645258 5.39411 -9.7997 
-93.0183 4.85662 -59.0587 
-70.2293 7.8116 -52.646 
-8.24731 2.39898 -19.3744 
179.94 -122.926 -245.191 
84.0371 -79.7566 -248.628 
27.677 0.82675 34.3345 
236.857 56.5673 504.83 
-26.9123 25.3578 28.136 
-36.6443 0.10152 -47.0715 
131.251 -11.3766 -177.094 
10.0287 -10.2177 -484.313 
-44.5422 248.757 564.012 
17.8068 -788.703 662.582 
0.500639 -15.4753 -95.1517 
-32.2213 -2.92571 -27.1961 
3.30738 -0.521708 -17.2547 
-200.467 9.6917 -33.5234 
16.0126 6.51353 2.63732 
12.947 12.5945 24.1138 
-4.20151 -12.0626 -0.449277 
14.637 19.1876 2.13087 
20.7738 11.0548 7.35331 
89.0187 -13.1784 256.328 
79.9513 -8.42281 44.3735 
12.8041 4.78585 -3.90797 
-174.431 -77.8978 283.246 
-53.1664 45.5877 -284.181 
12.4565 -12.787 20.0314 
-100.889 -119.52 -145.06 
9.20442 -6.48014 6.9854 
-15.8303 -9.86509 -1.91137 
29.7895 -9.63874 5.64965 
35.1207 -7.71694 -9.45308 
0.125068 -0.0647587 -0.278945 
-54.4899 48.4165 50.3119 
-69.2818 44.124 57.017 
118.031 -171.899 207.522 
230.773 -149.191 713.955 
0.513156 2.09517 -17.1998 
-125.072 91.0321 -97.417 
-192.262 71.6805 -33.5606 
265.945 -93.9059 238.225 
378.946 -123.485 205.602 
-151.641 -110.24 -228.547 
-371.348 -255.577 -237.195 
-30.787 -39.5685 -156.293 
-122.585 -47.3441 -197.241 
-2.79674 -21.6522 -19.6632 
0.554362 -5.49712 -4.80069 
-2.83832 -3.62753 -7.3038 
-21.5624 25.4375 9.96647 
-55.1317 -25.6862 -8.20405 
-60.9511 -18.7939 84.2229 
19.7539 70.4809 -8.3006 
57.8427 -340.132 -538.611 
-1.53198 -0.632168 0.398008 
140.305 83.9922 175.942 
-30.7024 19.2898 -34.4252 
6.4878 -13.0076 -17.2717 
45.828 -18.5026 -41.4721 
-226.904 29.0466 -1300.82 
-246.047 453.126 68.5213 
-257.944 98.2884 167.578 
-164.302 154.772 52.2142 
-16.391 3.05385 -55.0359 
-5.24614 -10.0241 -22.0923 
-0.408038 4.73216 -43.5406 
9.90649 25.7078 -18.7688 
-0.267726 1.71115 -6.46794 
16.2823 -5.44367 -38.5061 
-2.99978 2.07906 -27.3334 
7.27938 0.539869 21.3649 
246.221 9.80768 -25.8171 
-7.9014 -1.67457 -25.9949 
-1.10161 1.99582 5.64666 
3.96613 4.22294 -9.30325 
0.134917 -9.75117 24.9895 
-116.136 -114.053 -217.004 
-35.5829 -130.829 58.0651 
296.811 396.108 534.493 
184.064 363.803 226.277 
-8.63192 -22.6628 -27.7114 
66.2689 -57.3143 -1.62234 
13.8345 -23.1654 -9.94125 
-11.0706 -14.2848 -24.5544 
13.5408 1.07911 57.2217 
-10.8033 -4.17291 -32.4141 
-267.288 149.902 406.991 
-49.2569 296.782 -15.1742 
-175.784 248.959 356.812 
-8.86333 -0.278797 -0.182161 
15.7783 0.929457 -15.1294 
-45.1638 -284.375 -381.506 
-25.3557 30.2858 9.45322 
-431.537 -377.609 1212.58 
21.9321 -185.417 1107.19 
0.691067 1.75261 -3.98198 
-26.7679 10.9048 -41.781 
-8.69154 16.7434 21.9445 
-16.0307 2.08813 -76.4417 
-66.5751 43.6495 -42.3227 
-0.391532 -36.3435 -38.3384 
30.6524 1.56115 -16.6652 
31.3774 -11.1444 -16.8805 
-3.99857 -18.6979 -0.766512 
-2.22237 -4.33665 3.92443 
4.1404 3.10482 4.09291 
0.871414 -1.22839 5.3491 
18.674 -71.0734 82.6596 
37.5784 -133.437 13.424 
12.9683 -15.5476 -7.73602 
-13.1874 1.5384 -11.2399 
-2.90079 -21.7485 27.3682 
307.537 407.336 -761.155 
230.515 -322.437 -17.2886 
-170.49 -90.7473 299.663 
-2.75339 -5.1451 0.512401 
-4.67251 7.78487 -23.2955 
-60.2226 3.60702 -7.40934 
4.03428 -4.35272 -21.5871 
32.4204 -89.1241 -28.4265 
10.7155 -39.6696 -18.5749 
-4.96331 -0.18948 -11.9245 
-6.05133 -6.31483 -17.1381 
-8.81566 1.0934 -29.6566 
42.5297 1.67993 -206.576 
-22.2089 55.3379 -18.4993 
-5.48938 2.35529 -41.0218 
11.2282 -3.2291 -11.1344 
-183.915 -79.4781 -60.1227 
31.5171 -6.45887 -160.402 
-180.921 581.14 -674.947 
-6.22877 8.48848 -10.0087 
1.473 -2.58606 -4.44551 
3.95351 0.455136 -8.40407 
-2.60386 -5.94635 -2.11553 
1.61599 -0.743213 -4.15634 
6.48331 10.6073 -110.888 
1.96351 -37.7903 121.741 
0.499535 -6.21415 -13.5418 
1.05603 -3.05719 -1.34004 
-2.29847 4.3563 7.15341 
2.92621 -4.12508 6.76847 
1.03808 -0.517365 -0.207826 
-0.547285 1.69742 -0.95348 
4.68848 -12.4624 -4.55623 
-23.1017 -4.64555 -20.5983 
19.7611 13.0412 -8.31655 
-50.0448 0.306821 68.8974 
-1.19092 0.927646 -10.5113 
12.9109 -12.0814 -21.7951 
-4.36688 -4.08302 0.869136 
62.7048 -36.4147 17.9918 
103.418 154.663 -86.3664 
31.8332 -55.8666 -10.7222 
-26.5763 12.2108 1.58561 
-60.1499 -713.195 456.78 
-32.795 -832.145 474.704 
-37.6445 -11.6561 43.5558 
18.9301 -12.1549 -15.8622 
-1.08895 -1.03156 0.892086 
1.28236 5.20477 -20.6738 
-0.133638 0.97636 -2.57479 
-19.9869 7.23158 -18.0504 
-16.2881 -5.86576 9.71151 
-58.2561 -3.26214 -106.428 
-5.11942 0.890721 -7.99732 
11.2155 3.23303 -49.697 
39.8771 19.0434 35.3762 
-10.758 0.622605 12.3176 
29.955 10.6443 -5.50107 
4.38814 -11.0676 -178.124 
-4.01668 -19.9748 25.4284 
-183.805 -150.952 -389.354 
-0.17602 -1.22286 -3.67238 
-2.48712 -7.76223 -23.1374 
0.877323 -0.138852 -4.38156 
-94.5674 -49.717 -129.059 
4.38882 -9.64673 -19.3026 
10.2116 2.1533 41.384 
-6.80565 -0.800087 -13.2973 
18.8077 -33.2524 21.8417 
6.49492 -14.0234 -104.099 
32.2983 -9.92907 -26.3116 
22.8554 12.0559 -6.97005 
-37.6047 -20.3633 22.9743 
13.075 17.8605 -19.4755 
6.72921 2.77282 -3.38066 
0.200066 0.0231811 -1.41492 
-1.55331 0.493601 -4.29917 
0.322713 -0.383915 10.6503 
72.7022 9.35179 -78.5023 
0.34036 8.67996 -11.4771 
-13.7963 1.6779 -29.3376 
-6.78418 -2.31002 -17.0572 
5.0384 -21.8407 21.4759 
-19.6212 60.0103 -77.3169 
3.43729 16.476 -12.6114 
-1.65055 10.2873 15.9507 
-5.62891 -8.27861 8.51503 
-7.95448 -3.13186 -2.51691 
1.53555 -1.26638 -2.54398 
1.89168 0.498976 -4.21461 
-10.5813 -5.22556 -38.9681 
2.01069 2.96871 1.08449 
-7.03967 -32.2905 8.32697 
-2.28281 29.705 -76.3379 
-1.41527 -11.7623 -16.2682 
7.18464 0.428191 21.8025 
0.715669 -1.00193 -5.54388 
2.89611 -7.17535 -3.99104 
3.77149 4.91511 7.81271 
0.965218 0.224943 1.17569 
58.704 -1.64024 57.9611 
-25.566 8.09932 -30.5639 
0.384103 -0.267006 0.252813 
0.303276 -0.684794 -0.747837 
-6.01635 16.446 18.9869 
-3.86575 22.1158 -35.8769 
3.33541 -0.418381 -8.71331 
57.1452 19.1703 116.989 
0.960479 -0.558044 -0.594519 
-1.93248 0.0242907 -15.4739 
-1.27393 44.0911 -6.07886 
1.72199 15.7104 -17.9032 
-1.37983 -1.49232 0.853679 
-0.287866 1.2217 -3.38396 
0.170917 -2.54827 6.72697 
4.36976 -4.79175 -9.09649 
0.764869 3.21714 10.6161 
2.40841 -1.2391 9.39869 
-27.6245 -23.2772 -14.0059 
0.396749 -0.572152 -1.38251 
-8.48683 -13.0722 -28.107 
-6.92977 3.49797 -40.7727 
-3.38712 2.43062 -24.1127 
-104.645 -48.2912 137.615 
-0.442164 0.0223171 6.9564 
11.1604 6.35708 -35.282 
-0.841865 -0.00237639 3.60646 
13.8922 -0.629606 6.70343 
6.08069 0.998486 4.98956 
-60.1071 -21.732 12.718 
-108.274 138.02 183.709 
-62.4491 0.826597 -12.4473 
-10.0372 -18.535 17.6987 
-0.486393 3.4402 -2.33972 
-64.7736 -109.199 220.434 
-63.709 99.1258 -254.792 
-142.971 102.801 -212.7 
29.3268 -16.7082 84.6014 
-34.8082 -10.2044 38.6127 
-2.42388e-09 -6.88357e-16 -2.44229e-09 
-8.30714 -1.75875 10.621 
-351.487 -632.327 -89.8143 
-40.8207 -55.7961 24.3731 
-6.2836 -21.3323 -4.63316 
23.8475 58.5003 -17.1384 
-0.761754 -8.21129 2.4092 
-2.71335 9.32259 39.0426 
-3.47064 7.05636 20.022 
-3.33968 6.78893 -0.50873 
4.63551 6.47022 14.2962 
21.1615 67.0466 30.2125 
-0.586941 3.35808 11.984 
6.90849 9.19202 17.8591 
-0.154324 -4.35181 -0.326978 
-13.1963 197.964 39.6222 
366.549 -255.367 95.5346 
-18.1858 -16.406 4.57414 
1.24275 -32.2772 50.0038 
1.7808 -14.7812 5.8622 
-3.30529 -3.05797 29.5122 
-35.0311 -6.53114 1.11093 
2.43148e-09 -8.32437e-16 13.6117 
10.7736 -146.891 374.936 
1.27887e-14 9.10045e-15 13.6117 
-1.33928 11.6482 32.355 
-1.35061 -23.9287 171.237 
11.364 -204.127 -323.197 
-16.8587 10.4552 -1.45469 
30.2348 10.9787 134.193 
-56.4792 -12.5658 137.258 
-0.590223 -8.04518 25.6517 
16.3547 -8.63058 51.4509 
4.7865 -6.17901 29.6683 
13.6931 -0.719484 83.5907 
2.62114 -0.141893 39.4509 
12.701 19.8508 89.2986 
2.11451 38.2482 205.949 
-93.7492 -16.0007 -119.114 
3.32749 -0.370515 11.8009 
31.024 62.201 97.4767 
-12.8298 -0.696488 19.9115 
3.3067 4.36414 32.249 
-13.415 -0.841048 75.7274 
122.655 -104.301 -228.865 
6.1726 -1.43353 34.8561 
-5.5199 12.4443 31.5234 
0.747455 -1.36531 13.324 
14.2992 -4.59723 68.5587 
208 86.5761 315.363 
17.4564 -2.07281 60.1145 
62.821 57.6029 163.044 
20.2988 -116.081 229.738 
-35.1329 31.4307 70.6301 
-0.121758 2.3597 31.0139 
13.8045 -54.1778 -56.8142 
0.0014508 -0.000597785 13.6093 
-2.34992 -10.5669 1.80695 
-2.28803 2.94406 22.5074 
-64.14 507.632 -661.772 
-15.0783 -23.1736 -66.6282 
15.9379 40.9987 62.9075 
-4.0178 -2.83476 18.4015 
-78.2506 -9.19283 -189.815 
-0.555026 -4.28453 5.41325 
5.73732 5.04275 119.166 
-28.2236 4.1857 95.6046 
1.19937e-14 1.1064e-14 13.6117 
1.29296 -1.84519 12.7351 
VECTORS moment double
0 0 0 
0 0 0 
0 0 0 
0 0 0 
0 0 0 
0 0 0 
0 0 0 
0 0 0 
0 0 0 
0 0 0 
0 0 0 
0 0 0 
0 0 0 
0 0 0 
0 0 0 
0 0 0 
0 0 0 
0 0 0 
0 0 0 
0 0 0 
0 0 0 
0 0 0 
0 0 0 
0 0 0 
0 0 0 
0 0 0 
0 0 0 
0 0 0 
0 0 0 
0 0 0 
0 0 0 
0 0 0 
0 0 0 
0 0 0 
0 0 0 
0 0 0 
0 0 0 
0 0 0 
0 0 0 
0 0 0 
0 0 0 
0 0 0 
0 0 0 
0 0 0 
0 0 0 
0 0 0 
0 0 0 
0 0 0 
0 0 0 
0 0 0 
0 0 0 
0 0 0 
0 0 0 
0 0 0 
0 0 0 
0 0 0 
0 0 0 
0 0 0 
0 0 0 
0 0 0 
0 0 0 
0 0 0 
0 0 0 
0 0 0 
0 0 0 
0 0 0 
0 0 0 
0 0 0 
0 0 0 
0 0 0 
0 0 0 
0 0 0 
0 0 0 
0 0 0 
0 0 0 
0 0 0 
0 0 0 
0 0 0 
0 0 0 
0 0 0 
0 0 0 
0 0 0 
0 0 0 
0 0 0 
0 0 0 
0 0 0 
0 0 0 
0 0 0 
0 0 0 
0 0 0 
0 0 0 
0 0 0 
0 0 0 
0 0 0 
0 0 0 
0 0 0 
0 0 0 
0 0 0 
0 0 0 
0 0 0 
0 0 0 
0 0 0 
0 0 0 
0 0 0 
0 0 0 
0 0 0 
0 0 0 
0 0 0 
0 0 0 
0 0 0 
0 0 0 
0 0 0 
0 0 0 
0 0 0 
0 0 0 
0 0 0 
0 0 0 
0 0 0 
0 0 0 
0 0 0 
0 0 0 
0 0 0 
0 0 0 
0 0 0 
0 0 0 
0 0 0 
0 0 0 
0 0 0 
0 0 0 
0 0 0 
0 0 0 
0 0 0 
0 0 0 
0 0 0 
0 0 0 
0 0 0 
0 0 0 
0 0 0 
0 0 0 
0 0 0 
0 0 0 
0 0 0 
0 0 0 
0 0 0 
0 0 0 
0 0 0 
0 0 0 
0 0 0 
0 0 0 
0 0 0 
0 0 0 
0 0 0 
0 0 0 
0 0 0 
0 0 0 
0 0 0 
0 0 0 
0 0 0 
0 0 0 
0 0 0 
0 0 0 
0 0 0 
0 0 0 
0 0 0 
0 0 0 
0 0 0 
0 0 0 
0 0 0 
0 0 0 
0 0 0 
0 0 0 
0 0 0 
0 0 0 
0 0 0 
0 0 0 
0 0 0 
0 0 0 
0 0 0 
0 0 0 
0 0 0 
0 0 0 
0 0 0 
0 0 0 
0 0 0 
0 0 0 
0 0 0 
0 0 0 
0 0 0 
0 0 0 
0 0 0 
0 0 0 
0 0 0 
0 0 0 
0 0 0 
0 0 0 
0 0 0 
0 0 0 
0 0 0 
0 0 0 
0 0 0 
0 0 0 
0 0 0 
0 0 0 
0 0 0 
0 0 0 
0 0 0 
0 0 0 
0 0 0 
0 0 0 
0 0 0 
0 0 0 
0 0 0 
0 0 0 
0 0 0 
0 0 0 
0 0 0 
0 0 0 
0 0 0 
0 0 0 
0 0 0 
0 0 0 
0 0 0 
0 0 0 
0 0 0 
0 0 0 
0 0 0 
0 0 0 
0 0 0 
0 0 0 
0 0 0 
0 0 0 
0 0 0 
0 0 0 
0 0 0 
0 0 0 
0 0 0 
0 0 0 
0 0 0 
0 0 0 
0 0 0 
0 0 0 
0 0 0 
0 0 0 
0 0 0 
0 0 0 
0 0 0 
0 0 0 
0 0 0 
0 0 0 
0 0 0 
0 0 0 
0 0 0 
0 0 0 
0 0 0 
0 0 0 
0 0 0 
0 0 0 
0 0 0 
0 0 0 
0 0 0 
0 0 0 
0 0 0 
0 0 0 
0 0 0 
0 0 0 
0 0 0 
0 0 0 
0 0 0 
0 0 0 
0 0 0 
0 0 0 
0 0 0 
0 0 0 
0 0 0 
0 0 0 
0 0 0 
0 0 0 
0 0 0 
0 0 0 
0 0 0 
0 0 0 
0 0 0 
0 0 0 
0 0 0 
0 0 0 
0 0 0 
0 0 0 
0 0 0 
0 0 0 
0 0 0 
0 0 0 
0 0 0 
0 0 0 
0 0 0 
0 0 0 
0 0 0 
0 0 0 
0 0 0 
0 0 0 
0 0 0 
0 0 0 
0 0 0 
0 0 0 
0 0 0 
0 0 0 
0 0 0 
0 0 0 
0 0 0 
0 0 0 
0 0 0 
0 0 0 
0 0 0 
0 0 0 
0 0 0 
0 0 0 
0 0 0 
0 0 0 
0 0 0 
0 0 0 
0 0 0 
0 0 0 
0 0 0 
0 0 0 
0 0 0 
0 0 0 
0 0 0 
0 0 0 
0 0 0 
0 0 0 
0 0 0 
0 0 0 
0 0 0 
0 0 0 
0 0 0 
0 0 0 
0 0 0 
0 0 0 
0 0 0 
0 0 0 
0 0 0 
0 0 0 
0 0 0 
0 0 0 
0 0 0 
0 0 0 
0 0 0 
0 0 0 
0 0 0 
0 0 0 
0 0 0 
0 0 0 
0 0 0 
0 0 0 
0 0 0 
0 0 0 
0 0 0 
0 0 0 
0 0 0 
0 0 0 
0 0 0 
0 0 0 
0 0 0 
0 0 0 
0 0 0 
0 0 0 
0 0 0 
0 0 0 
0 0 0 
0 0 0 
0 0 0 
0 0 0 
0 0 0 
0 0 0 
0 0 0 
0 0 0 
0 0 0 
0 0 0 
0 0 0 
0 0 0 
0 0 0 
0 0 0 
0 0 0 
0 0 0 
0 0 0 
0 0 0 
0 0 0 
0 0 0 
0 0 0 
0 0 0 
0 0 0 
0 0 0 
0 0 0 
0 0 0 
0 0 0 
0 0 0 
0 0 0 
0 0 0 
0 0 0 
0 0 0 
0 0 0 
0 0 0 
0 0 0 
0 0 0 
0 0 0 
0 0 0 
0 0 0 
0 0 0 
0 0 0 
0 0 0 
0 0 0 
0 0 0 
SCALARS num_collisions int 1
LOOKUP_TABLE default
1 
1 
1 
1 
1 
1 
1 
1 
1 
1 
1 
1 
1 
1 
1 
1 
1 
1 
1 
1 
1 
1 
1 
1 
1 
1 
1 
1 
1 
1 
1 
1 
1 
1 
1 
1 
1 
1 
1 
1 
1 
1 
1 
1 
1 
1 
1 
1 
1 
1 
1 
1 
1 
1 
1 
1 
1 
1 
1 
1 
1 
1 
1 
1 
1 
1 
1 
1 
1 
1 
1 
1 
1 
1 
1 
1 
1 
1 
1 
1 
1 
1 
1 
1 
1 
1 
1 
1 
1 
1 
1 
1 
1 
1 
1 
1 
1 
1 
1 
1 
1 
1 
1 
1 
1 
1 
1 
1 
1 
1 
1 
1 
1 
1 
1 
1 
1 
1 
1 
1 
1 
1 
1 
1 
1 
1 
1 
1 
1 
1 
1 
1 
1 
1 
1 
1 
1 
1 
1 
1 
1 
1 
1 
1 
1 
1 
1 
1 
1 
1 
1 
1 
1 
1 
1 
1 
1 
1 
1 
1 
1 
1 
1 
1 
1 
1 
1 
1 
1 
1 
1 
1 
1 
1 
1 
1 
1 
1 
1 
1 
1 
1 
1 
1 
1 
1 
1 
1 
1 
1 
1 
1 
1 
1 
1 
1 
1 
1 
1 
1 
1 
1 
1 
1 
1 
1 
1 
1 
1 
1 
1 
1 
1 
1 
1 
1 
1 
1 
1 
1 
1 
1 
1 
1 
1 
1 
1 
1 
1 
1 
1 
1 
1 
1 
1 
1 
1 
1 
1 
1 
1 
1 
1 
1 
1 
1 
1 
1 
1 
1 
1 
1 
1 
1 
1 
1 
1 
1 
1 
1 
1 
1 
1 
1 
1 
1 
1 
1 
1 
1 
1 
1 
1 
1 
1 
1 
1 
1 
1 
1 
1 
1 
1 
1 
1 
1 
1 
1 
1 
1 
1 
1 
1 
1 
1 
1 
1 
1 
1 
1 
1 
1 
1 
1 
1 
1 
1 
1 
1 
1 
1 
1 
1 
1 
1 
1 
1 
1 
1 
1 
1 
1 
1 
1 
1 
1 
1 
1 
1 
1 
1 
1 
1 
1 
1 
1 
1 
1 
1 
1 
1 
1 
1 
1 
1 
1 
1 
1 
1 
1 
1 
1 
1 
1 
1 
1 
1 
1 
1 
1 
1 
1 
1 
1 
1 
1 
1 
1 
1 
1 
1 
1 
1 
1 
1 
1 
1 
1 
1 
1 
1 
1 
1 
1 
1 
1 
1 
1 
1 
1 
1 
1 
1 
1 
1 
1 
1 
1 
1 
1 
1 
1 
1 
1 
1 
1 
1 
1 
1 
1 
1 
VECTORS pos double
-0.410166 -0.4125 -0.426317 
-0.449523 -0.229927 -0.412117 
-0.431552 -0.154941 -0.430107 
-0.384588 0.0281748 -0.434263 
-0.386162 -0.0273856 -0.423748 
-0.410519 0.0888037 -0.428155 
-0.449814 0.141819 -0.411235 
-0.300751 -0.419134 -0.440168 
-0.263486 -0.445004 -0.40992 
-0.314257 -0.208275 -0.400629 
-0.270209 -0.185687 -0.429506 
-0.162191 -0.0324058 -0.420216 
-0.209429 -0.00747144 -0.402221 
-0.183637 0.0385777 -0.44083 
-0.184683 0.120339 -0.461309 
-0.210475 0.186817 -0.421358 
-0.222735 0.338914 -0.443966 
-0.298683 0.368782 -0.426367 
-0.07797 -0.383409 -0.433951 
-0.137323 -0.0949183 -0.420209 
-0.188995 -0.146978 -0.42949 
-0.036085 -0.0503637 -0.421972 
-0.0151901 0.152442 -0.430556 
0.0733902 0.155885 -0.42417 
-0.0717479 0.308309 -0.42858 
-0.0244104 0.357573 -0.401554 
0.211735 -0.416736 -0.425042 
0.172375 -0.219059 -0.427478 
0.191522 0.018065 -0.424605 
0.143593 0.251661 -0.445836 
0.332133 0.417139 -0.451821 
0.443246 -0.382116 -0.407751 
0.421783 -0.428966 -0.414533 
0.433648 -0.329802 -0.407755 
0.351616 0.0769759 -0.411408 
0.415143 0.115121 -0.42384 
0.40816 0.455696 -0.424136 
-0.418532 -0.425983 -0.354994 
-0.371016 -0.396962 -0.395219 
-0.34726 -0.0207605 -0.383442 
-0.411171 -0.0678921 -0.387156 
-0.449737 0.223192 -0.376446 
-0.311029 -0.354193 -0.393061 
-0.204946 -0.165399 -0.367825 
-0.171543 -0.128148 -0.166833 
-0.160036 -0.0851307 -0.250937 
-0.195228 -0.0803384 -0.181268 
-0.134474 -0.0646827 -0.172 
-0.181465 0.422307 -0.394433 
-0.141105 0.374499 -0.406389 
-0.0360046 -0.37586 -0.369528 
-0.133139 -0.377253 -0.375327 
0.316174 -0.202224 -0.144457 
-0.0165213 -0.0075587 -0.349879 
-0.0137994 -0.00984904 -0.25641 
0.0612719 0.242193 -0.409139 
-0.00858751 0.248238 -0.40921 
0.111362 0.269572 -0.3947 
0.0840795 0.347417 -0.401004 
0.20252 -0.422783 -0.353709 
0.194716 -0.159658 -0.398565 
0.168251 0.0409411 -0.359851 