# vtk DataFile Version 2.0
Generated by NetDEM
ASCII 
DATASET POLYDATA
POINTS 382 double
-0.418194 -0.405086 -0.46318 
-0.419808 -0.400362 -0.38853 
-0.408357 -0.00583709 -0.462878 
-0.394104 -0.00347885 -0.385205 
-0.448936 0.120118 -0.450012 
-0.45 0.1753 -0.36663 
-0.449476 0.345514 -0.450022 
-0.439883 0.273721 -0.381101 
-0.270988 -0.429824 -0.459108 
-0.323884 -0.411577 -0.395627 
-0.252318 0.369357 -0.46415 
-0.218877 0.430426 -0.389825 
-0.252318 0.369357 -0.46415 
-0.355987 0.368395 -0.403121 
-0.0496222 -0.404623 -0.461784 
-0.0780099 -0.4033 -0.390111 
-0.0321794 0.322434 -0.44055 
0.0238907 0.26154 -0.449524 
0.193911 -0.400064 -0.462227 
0.207676 -0.407096 -0.389458 
0.170365 -0.208568 -0.46313 
0.172986 -0.202839 -0.389966 
0.172839 -0.00973574 -0.462697 
0.177341 0.00108085 -0.383849 
0.160118 0.20994 -0.465086 
0.11688 0.296315 -0.413563 
0.160118 0.20994 -0.465086 
0.260416 0.177832 -0.445449 
0.304874 0.406086 -0.409766 
0.287259 0.37862 -0.315261 
0.304874 0.406086 -0.409766 
0.370142 0.438179 -0.465082 
0.449994 -0.405978 -0.449945 
0.43681 -0.354111 -0.365473 
0.429939 -0.301161 -0.450011 
0.43681 -0.354111 -0.365473 
0.38153 0.0912902 -0.450051 
0.324198 0.0647533 -0.372546 
0.38153 0.0912902 -0.450051 
0.450008 0.137242 -0.393575 
-0.419808 -0.400362 -0.38853 
-0.323884 -0.411577 -0.395627 
-0.419808 -0.400362 -0.38853 
-0.420552 -0.428351 -0.319444 
-0.394104 -0.00347885 -0.385205 
-0.339887 -0.00492683 -0.318257 
-0.45 0.1753 -0.36663 
-0.439883 0.273721 -0.381101 
-0.323884 -0.411577 -0.395627 
-0.255197 -0.426654 -0.352275 
-0.143811 0.39752 -0.447098 
-0.218877 0.430426 -0.389825 
-0.0780099 -0.4033 -0.390111 
-0.159163 -0.445498 -0.387 
-0.0780099 -0.4033 -0.390111 
-0.0870108 -0.32138 -0.347047 
0.0238907 0.26154 -0.449524 
0.11688 0.296315 -0.413563 
0.207676 -0.407096 -0.389458 
0.291258 -0.450024 -0.364406 
0.207676 -0.407096 -0.389458 
0.198218 -0.419263 -0.314651 
0.172986 -0.202839 -0.389966 
0.149408 -0.101436 -0.338188 
0.172986 -0.202839 -0.389966 
0.242701 -0.144971 -0.362186 
0.172986 -0.202839 -0.389966 
0.169598 -0.293725 -0.366381 
0.177341 0.00108085 -0.383849 
0.166397 0.0378029 -0.319585 
0.287259 0.37862 -0.315261 
0.20209 0.312154 -0.332295 
0.287259 0.37862 -0.315261 
0.250565 0.449932 -0.255552 
0.450008 0.137242 -0.393575 
0.449921 0.232815 -0.36439 
0.42432 0.339303 -0.455904 
0.426612 0.366459 -0.375415 
0.42432 0.339303 -0.455904 
0.439115 0.255736 -0.459831 
-0.420552 -0.428351 -0.319444 
-0.425382 -0.440598 -0.244795 
-0.339887 -0.00492683 -0.318257 
-0.292969 0.0123073 -0.258025 
-0.439883 0.273721 -0.381101 
-0.424831 0.26653 -0.282511 
-0.182289 -0.371069 -0.452464 
-0.159163 -0.445498 -0.387 
0.148269 -0.277828 -0.063443 
0.213842 -0.292459 -0.123836 
-0.349562 0.335229 -0.330497 
-0.450027 0.380439 -0.330191 
-0.349562 0.335229 -0.330497 
-0.355987 0.368395 -0.403121 
0.250606 0.337678 -0.461211 
0.3305 0.308774 -0.411285 
0.198218 -0.419263 -0.314651 
0.241198 -0.42727 -0.227238 
0.198218 -0.419263 -0.314651 
0.0956038 -0.447514 -0.326011 
0.166397 0.0378029 -0.319585 
0.14587 0.055694 -0.25326 
0.291258 -0.450024 -0.364406 
0.350889 -0.414109 -0.292655 
0.378606 -0.201976 -0.450017 
0.45002 -0.208061 -0.380296 
0.378606 -0.201976 -0.450017 
0.343678 -0.17079 -0.361666 
0.449921 0.232815 -0.36439 
0.439115 0.255736 -0.459831 
0.449921 0.232815 -0.36439 
0.447163 0.220379 -0.265467 
-0.159163 -0.445498 -0.387 
-0.163313 -0.403887 -0.309492 
-0.159163 -0.445498 -0.387 
-0.255197 -0.426654 -0.352275 
-0.273157 0.070356 0.220686 
-0.292965 0.164068 0.192332 
-0.355987 0.368395 -0.403121 
-0.312541 0.429265 -0.335374 
0.241198 -0.42727 -0.227238 
0.269578 -0.388693 -0.170551 
0.169598 -0.293725 -0.366381 
0.0704764 -0.347762 -0.356753 
0.169598 -0.293725 -0.366381 
0.262539 -0.307734 -0.340984 
0.260416 0.177832 -0.445449 
0.23482 0.231629 -0.376029 
0.156216 0.450003 -0.450014 
0.207532 0.388859 -0.389786 
0.357772 -0.316711 -0.314122 
0.262539 -0.307734 -0.340984 
0.357772 -0.316711 -0.314122 
0.397618 -0.226602 -0.297183 
0.357772 -0.316711 -0.314122 
0.350889 -0.414109 -0.292655 
0.3305 0.308774 -0.411285 
0.328225 0.209966 -0.396091 
0.426612 0.366459 -0.375415 
0.398707 0.299043 -0.306309 
-0.255197 -0.426654 -0.352275 
-0.266244 -0.379341 -0.289068 
0.0704764 -0.347762 -0.356753 
-0.00568145 -0.352573 -0.286168 
0.273461 -0.181599 0.125225 
0.337273 -0.129262 0.0758575 
0.23482 0.231629 -0.376029 
0.225656 0.186312 -0.314917 
0.23482 0.231629 -0.376029 
0.20209 0.312154 -0.332295 
0.350889 -0.414109 -0.292655 
0.436004 -0.450018 -0.25443 
0.45002 -0.208061 -0.380296 
0.397618 -0.226602 -0.297183 
0.395994 0.449931 -0.354377 
0.437593 0.400037 -0.288876 
-0.4544 -0.0283035 -0.18047 
-0.439511 -0.0672291 -0.0886318 
-0.312541 0.429265 -0.335374 
-0.368811 0.450035 -0.255392 
-0.0870108 -0.32138 -0.347047 
-0.126728 -0.355466 -0.245521 
0.242701 -0.144971 -0.362186 
0.343678 -0.17079 -0.361666 
0.343678 -0.17079 -0.361666 
0.359884 -0.0832719 -0.316113 
0.450013 0.0607317 -0.329114 
0.434507 -0.0261072 -0.282053 
0.437593 0.400037 -0.288876 
0.446411 0.37533 -0.197356 
-0.439511 -0.0672291 -0.0886318 
-0.379749 0.00680673 -0.0784764 
-0.126728 -0.355466 -0.245521 
-0.131941 -0.406521 -0.157634 
-0.218877 0.430426 -0.389825 
-0.149748 0.435348 -0.325124 
-0.00568145 -0.352573 -0.286168 
0.0235647 -0.437986 -0.279949 
0.0964598 -0.446369 -0.0786696 
0.104133 -0.431704 0.0165152 
0.225656 0.186312 -0.314917 
0.208486 0.150485 -0.245219 
0.397618 -0.226602 -0.297183 
0.449565 -0.149887 -0.259591 
0.359884 -0.0832719 -0.316113 
0.365581 -0.069556 -0.217237 
0.359884 -0.0832719 -0.316113 
0.434507 -0.0261072 -0.282053 
0.324198 0.0647533 -0.372546 
0.36282 0.0467074 -0.282186 
0.398707 0.299043 -0.306309 
0.315884 0.243132 -0.302559 
0.446411 0.37533 -0.197356 
0.421129 0.409173 -0.0958778 
-0.266244 -0.379341 -0.289068 
-0.21385 -0.390201 -0.197643 
-0.156821 -0.316786 0.0333081 
-0.218696 -0.343518 0.0969707 
-0.149748 0.435348 -0.325124 
-0.172193 0.359695 -0.282865 
0.104133 -0.431704 0.0165152 
0.192063 -0.40533 0.0654609 
0.208486 0.150485 -0.245219 
0.235981 0.195947 -0.154996 
0.449565 -0.149887 -0.259591 
0.392503 -0.157415 -0.177829 
0.36282 0.0467074 -0.282186 
0.41812 0.0609034 -0.20035 
-0.450142 0.213839 -0.107059 
-0.449661 0.243018 -0.0115895 
0.135954 0.367943 -0.225794 
0.228206 0.325608 -0.236643 
0.337273 -0.129262 0.0758575 
0.348653 -0.0560929 0.156311 
0.421129 0.409173 -0.0958778 
0.438715 0.39819 -0.00975723 
-0.131941 -0.406521 -0.157634 
-0.216358 -0.413034 -0.0857913 
0.298731 -0.373105 0.00377239 
0.370825 -0.450038 -0.0217955 
0.348653 -0.0560929 0.156311 
0.374151 0.0275867 0.189771 
0.449135 -0.200226 0.0505428 
0.379352 -0.162427 -0.00752805 
0.449135 -0.200226 0.0505428 
0.429093 -0.227684 0.144578 
0.438715 0.39819 -0.00975723 
0.407244 0.445916 0.0512368 
0.379352 -0.162427 -0.00752805 
0.420702 -0.188778 -0.0871849 
0.235981 0.195947 -0.154996 
0.216953 0.175418 -0.0528396 
0.392503 -0.157415 -0.177829 
0.365581 -0.069556 -0.217237 
0.392503 -0.157415 -0.177829 
0.420702 -0.188778 -0.0871849 
0.41812 0.0609034 -0.20035 
0.396347 -0.00422747 -0.127937 
0.447163 0.220379 -0.265467 
0.44897 0.262952 -0.175564 
-0.000305263 -0.409333 0.0393851 
0.00361187 -0.421614 0.132503 
0.302229 -0.45349 0.256328 
0.400231 -0.431751 0.281122 
0.44897 0.262952 -0.175564 
0.395031 0.193552 -0.128305 
-0.103361 -0.428589 0.267383 
-0.194094 -0.391843 0.286594 
-0.209629 0.445573 0.304285 
-0.206945 0.405304 0.388436 
-0.443284 -0.398253 0.355562 
-0.419389 -0.412874 0.425543 
-0.206945 0.405304 0.388436 
-0.189768 0.384082 0.453351 
-0.450142 0.213839 -0.107059 
-0.5 0.213828 -0.106986 
-0.45 0.1753 -0.36663 
-0.5 0.175305 -0.366627 
-0.450027 0.380439 -0.330191 
-0.5 0.380439 -0.330183 
-0.4544 -0.0283035 -0.18047 
-0.500001 -0.021345 -0.190479 
0.450008 0.137242 -0.393575 
0.5 0.137243 -0.39357 
0.450013 0.0607317 -0.329114 
0.5 0.0607303 -0.329114 
0.45 -0.374653 0.215326 
0.5 -0.374664 0.21536 
0.45002 -0.208061 -0.380296 
0.5 -0.208061 -0.380299 
0.437593 0.400037 -0.288876 
0.5 0.39739 -0.276178 
0.400993 -0.450013 -0.374711 
0.401 -0.5 -0.374706 
0.0956038 -0.447514 -0.326011 
0.050225 -0.500003 -0.351069 
0.0920739 -0.445789 0.349883 
0.0964001 -0.500001 0.324755 
0.436004 -0.450018 -0.25443 
0.435984 -0.5 -0.254395 
0.370825 -0.450038 -0.0217955 
0.370825 -0.5 -0.0217404 
0.291258 -0.450024 -0.364406 
0.291258 -0.5 -0.3644 
-0.159163 -0.445498 -0.387 
-0.152098 -0.500006 -0.376061 
-0.394285 -0.445425 -0.156114 
-0.364294 -0.5 -0.16971 
0.156216 0.450003 -0.450014 
0.156216 0.5 -0.450014 
-0.368811 0.450035 -0.255392 
-0.368827 0.5 -0.255392 
0.395994 0.449931 -0.354377 
0.410222 0.500007 -0.377928 
0.0306479 0.0583322 -0.449914 
0.0412804 0.043421 -0.500003 
0.172839 -0.00973574 -0.462697 
0.201449 0.00649556 -0.500012 
-0.448936 0.120118 -0.450012 
-0.448934 0.120127 -0.5 
0.42432 0.339303 -0.455904 
0.418554 0.354794 -0.500012 
-0.182289 -0.371069 -0.452464 
-0.188789 -0.389375 -0.500015 
-0.143811 0.39752 -0.447098 
-0.120216 0.41669 -0.500053 
-0.408357 -0.00583709 -0.462878 
-0.385213 -0.00765287 -0.500006 
-0.418194 -0.405086 -0.46318 
-0.404517 -0.401123 -0.500013 
0.439115 0.255736 -0.459831 
0.426642 0.267376 -0.500025 
0.338557 -0.0103952 -0.450007 
0.338558 -0.0103952 -0.5 
0.260416 0.177832 -0.445449 
0.274823 0.190483 -0.500033 
-0.0496222 -0.404623 -0.461784 
-0.0536283 -0.399219 -0.500016 
0.069951 -0.103682 -0.44416 
0.0898368 -0.109201 -0.500002 
-0.449476 0.345514 -0.450022 
-0.449474 0.345513 -0.5 
0.370142 0.438179 -0.465082 
0.362878 0.431596 -0.50002 
-0.19401 -0.0106695 -0.450011 
-0.194011 -0.0106694 -0.5 
0.429939 -0.301161 -0.450011 
0.429934 -0.301162 -0.5 
-0.286374 -0.208708 -0.450013 
-0.28634 -0.208706 -0.5 
-0.0658006 0.143156 -0.432315 
-0.094583 0.15352 -0.500004 
-0.174174 0.171942 -0.46367 
-0.179631 0.168938 -0.500003 
-0.270988 -0.429824 -0.459108 
-0.298781 -0.44573 -0.500008 
0.193911 -0.400064 -0.462227 
0.226204 -0.398547 -0.500022 
0.0238907 0.26154 -0.449524 
0.0153683 0.257241 -0.500005 
0.271391 -0.192513 -0.450007 
0.27139 -0.19251 -0.5 
0.160118 0.20994 -0.465086 
0.175083 0.197392 -0.500031 
0.195676 0.112238 -0.456217 
0.208742 0.144509 -0.500002 
-0.252318 0.369357 -0.46415 
-0.259924 0.356643 -0.500024 
0.170365 -0.208568 -0.46313 
0.158024 -0.198986 -0.500027 
0.378606 -0.201976 -0.450017 
0.378607 -0.201971 -0.5 
0.38153 0.0912902 -0.450051 
0.381531 0.0912945 -0.5 
0.156216 0.450003 -0.450014 
0.156216 0.450003 -0.5 
0.273998 0.0666719 -0.443718 
0.294717 0.0531028 -0.500003 
-0.31076 0.156479 -0.462391 
-0.316141 0.148464 -0.500003 
0.250606 0.337678 -0.461211 
0.249443 0.361456 -0.500007 
0.448002 -0.00499085 -0.450007 
0.447987 -0.00497658 -0.5 
-0.0321794 0.322434 -0.44055 
-0.0310865 0.335871 -0.500003 
-0.449349 -0.203512 -0.450007 
-0.44933 -0.203511 -0.5 
-0.130862 -0.149071 -0.450007 
-0.13083 -0.14908 -0.5 
0.0340984 0.179206 -0.452352 
0.0381204 0.164159 -0.500003 
-0.27968 0.252684 -0.450007 
-0.279671 0.25267 -0.5 
-0.42229 0.241525 -0.464049 
-0.416059 0.236486 -0.500018 
-0.189768 0.384082 0.453351 
-0.192709 0.405537 0.501707 
0.180215 -0.375078 0.449935 
0.199822 -0.383952 0.500025 
-0.36344 -0.0495871 0.462906 
-0.336843 -0.0615883 0.50003 
LINES 191 573
2 0 1
2 2 3
2 4 5
2 6 7
2 8 9
2 10 11
2 12 13
2 14 15
2 16 17
2 18 19
2 20 21
2 22 23
2 24 25
2 26 27
2 28 29
2 30 31
2 32 33
2 34 35
2 36 37
2 38 39
2 40 41
2 42 43
2 44 45
2 46 47
2 48 49
2 50 51
2 52 53
2 54 55
2 56 57
2 58 59
2 60 61
2 62 63
2 64 65
2 66 67
2 68 69
2 70 71
2 72 73
2 74 75
2 76 77
2 78 79
2 80 81
2 82 83
2 84 85
2 86 87
2 88 89
2 90 91
2 92 93
2 94 95
2 96 97
2 98 99
2 100 101
2 102 103
2 104 105
2 106 107
2 108 109
2 110 111
2 112 113
2 114 115
2 116 117
2 118 119
2 120 121
2 122 123
2 124 125
2 126 127
2 128 129
2 130 131
2 132 133
2 134 135
2 136 137
2 138 139
2 140 141
2 142 143
2 144 145
2 146 147
2 148 149
2 150 151
2 152 153
2 154 155
2 156 157
2 158 159
2 160 161
2 162 163
2 164 165
2 166 167
2 168 169
2 170 171
2 172 173
2 174 175
2 176 177
2 178 179
2 180 181
2 182 183
2 184 185
2 186 187
2 188 189
2 190 191
2 192 193
2 194 195
2 196 197
2 198 199
2 200 201
2 202 203
2 204 205
2 206 207
2 208 209
2 210 211
2 212 213
2 214 215
2 216 217
2 218 219
2 220 221
2 222 223
2 224 225
2 226 227
2 228 229
2 230 231
2 232 233
2 234 235
2 236 237
2 238 239
2 240 241
2 242 243
2 244 245
2 246 247
2 248 249
2 250 251
2 252 253
2 254 255
2 256 257
2 258 259
2 260 261
2 262 263
2 264 265
2 266 267
2 268 269
2 270 271
2 272 273
2 274 275
2 276 277
2 278 279
2 280 281
2 282 283
2 284 285
2 286 287
2 288 289
2 290 291
2 292 293
2 294 295
2 296 297
2 298 299
2 300 301
2 302 303
2 304 305
2 306 307
2 308 309
2 310 311
2 312 313
2 314 315
2 316 317
2 318 319
2 320 321
2 322 323
2 324 325
2 326 327
2 328 329
2 330 331
2 332 333
2 334 335
2 336 337
2 338 339
2 340 341
2 342 343
2 344 345
2 346 347
2 348 349
2 350 351
2 352 353
2 354 355
2 356 357
2 358 359
2 360 361
2 362 363
2 364 365
2 366 367
2 368 369
2 370 371
2 372 373
2 374 375
2 376 377
2 378 379
2 380 381
POINT_DATA 382
SCALARS id int 1
LOOKUP_TABLE default
0
25
2
27
3
28
4
54
5
30
9
159
9
84
10
35
14
38
15
40
16
41
17
42
18
39
18
93
19
44
19
24
20
46
21
46
23
172
23
48
25
30
25
50
27
52
28
54
30
105
34
159
35
80
35
135
38
39
40
70
40
65
41
166
41
141
41
91
42
67
44
143
44
194
48
73
49
99
49
74
50
75
52
77
54
179
55
80
56
241
59
104
59
84
64
98
65
90
65
85
67
92
70
120
71
121
71
146
73
74
73
273
80
130
80
105
82
307
84
129
90
115
91
110
91
116
93
118
94
144
95
116
95
170
95
120
98
123
99
173
105
180
110
160
111
217
118
168
118
143
120
145
121
170
124
149
127
152
129
204
135
155
141
146
146
171
148
222
149
174
152
177
155
230
159
184
160
185
165
190
168
193
170
196
171
297
171
222
172
197
173
198
174
224
180
205
181
225
184
209
190
215
193
268
196
271
197
272
201
328
214
219
217
242
224
249
230
255
240
245
242
372
246
266
246
371
249
274
266
296
268
293
271
297
271
296
272
347
273
298
285
310
290
320
298
348
330
355
334
359
350
375
359
384
201
0
28
0
104
0
127
0
48
1
148
1
261
1
121
1
149
1
45
2
85
2
315
2
145
2
245
2
70
2
80
2
100
2
94
3
204
3
124
3
88
4
17
4
3
4
49
4
55
4
34
4
2
4
0
4
74
4
22
4
93
4
10
4
66
4
4
4
24
4
7
4
21
4
6
4
83
4
8
4
5
4
15
4
38
4
47
4
18
4
43
4
9
4
16
4
71
4
23
4
94
4
68
4
33
4
64
4
122
4
14
4
1
4
11
4
13
4
53
4
109
4
384
5
365
5
302
5
CELL_DATA 191
VECTORS force double
-1.39029 2.23543 -34.5997 
0.107689 -0.461501 -19.8429 
-1.79444 -6.70806 -10.7222 
-2.99016 18.351 -30.1164 
-5.41466 0.195976 -16.5196 
-70.1138 -79.1957 -21.9355 
70.9701 26.9633 -51.3268 
10.8565 -20.9064 -42.8875 
0.800289 1.89016 1.66685 
2.3944 12.4633 -80.3799 
-18.006 27.1195 -96.5622 
7.47052 -4.0969 -34.9738 
8.6487 -13.761 -7.55859 
-110.343 -30.0257 -307.273 
-34.519 87.0597 50.1517 
-26.4661 -27.4986 69.6973 
-0.0769163 -9.76515 4.25908 
-1.61344 18.6138 -17.8086 
-18.4577 -21.5287 -100.298 
-205.223 -248.817 -558.144 
-0.243669 0.17645 -12.9669 
1.07178 -0.182216 -10.4818 
-1.36032 -0.454166 -9.2285 
-2.36435 -15.3173 1.29287 
-3.08471 -1.76796 -15.9099 
115.134 56.5572 -247.996 
4.96934 8.88405 7.02371 
6.70877 -12.8227 -51.5789 
-4.58973 0.00877845 -4.45176 
-22.9641 9.66149 -26.468 
9.79613 0.291682 -35.5724 
0.91695 7.94415 -7.78175 
-40.7167 -30.9114 -16.8645 
2.06935 45.7081 -59.6073 
6.86348 -3.96634 -18.7507 
88.2113 -263.931 -198.236 
-95.5235 -157.943 -118.514 
382.823 -251.821 504.749 
42.8896 -161.636 -344.835 
-44.5572 189.504 -904.587 
1.06949 -0.105515 -2.54992 
-0.866766 -0.537047 -2.04156 
-1.96115 3.89098 -13.3284 
-5.36807 17.1021 -46.2205 
62.3729 -18.1728 -58.7007 
43.7017 -11.3192 -10.6516 
-34.6875 9.27662 21.7678 
-11.6582 11.3551 -15.5799 
-3.7373 0.0105144 -11.3203 
7.44435 0.572104 -6.55689 
3.09531 -1.98091 -10.34 
-32.9425 -23.4621 -28.5672 
-27.0782 8.27079 12.0453 
31.601 -12.0935 -2.08388 
-71.562 595.682 -103.611 
-149.795 -556.223 -1297.05 
0.20263 0.00439103 -11.5105 
2.64071 -1.32445 -13.6845 
15.9671 -61.8159 27.5189 
7.75665 0.0806881 -21.0587 
0.0309363 -0.394399 -3.19289 
29.1348 23.034 -22.8753 
-33.6439 7.74055 -19.6436 
209.301 76.8701 447.838 
-3.21473 4.09248 -8.89768 
33.9741 -4.68573 7.07968 
-23.8773 -37.1243 -8.07271 
-4.21541 43.2582 -5.67487 
-2.22261 5.89015 -3.48744 
-4.6046 44.8836 110.548 
-1.57974 -2.98639 -13.2132 
19.1689 12.7379 -12.0059 
3.84563 4.78595 -4.05352 
-45.1436 -95.7802 -565.888 
-76.1412 -394.444 -252.297 
-28.4869 27.1029 -19.8287 
12.2323 4.50656 5.58383 
-2.64264 19.8576 -24.9973 
-9.70714 1.36141 -15.5962 
29.3229 -41.6447 -50.3554 
5.25218 -3.83872 -24.2981 
-90.1594 7.39549 3.59153 
-35.9706 -27.9872 -19.3126 
26.6032 35.1658 -7.268 
-3.49272 7.67089 -44.0202 
-6.81634 -1.33847 -6.0402 
4.97283 -0.36467 -8.8192 
20.1451 77.7808 -242.686 
6.01537 7.1297 -3.86279 
19.1287 7.29508 42.0283 
0.145272 8.48064 18.5328 
-5.68583 -18.6989 -5.32525 
1.28281 3.2732 -2.72243 
-25.2509 -46.27 -7.26638 
-208.441 -34.2586 -295.535 
-2.55072 -8.03852 -23.2324 
4.11431 1.06518 -35.2432 
-1.65248 -0.563371 -3.15824 
1.53003 0.507856 -1.39424 
-3.43959 64.9641 -132.57 
25.9974 15.2102 31.0943 
29.1594 9.98324 -21.301 
6.70368 0.7927 -22.9279 
-222.827 54.8958 -516.814 
-227.089 -95.6263 -288.423 
1.72165 -0.921359 -1.25957 
1.5374 4.63267 0.498306 
5.263 -2.17692 -26.1746 
0.560419 1.33206 -0.61726 
-17.7813 24.5451 6.87472 
-2.64676 -7.10261 -2.83027 
6.851 -9.69968 27.371 
-2.8097 5.08387 -17.7141 
-2.66656 -1.47981 -10.5845 
3.32445 -3.30834 29.5851 
-3.53529 1.92979 3.26845 
-2.41242 10.9985 -9.66038 
4.4269 -5.05215 -20.1976 
-89.7444 -2.26996 -221.622 
223.731 16.1955 -1091.36 
-15.3449 -1.8724 -140.8 
-0.653533 -3.34008 0.0367001 
324.648 244.208 -800.289 
20.4404 8.41968 -31.3799 
1029.15 1543.65 -5762.59 
-2777.23 -15377.4 5728.83 
4626.49 -6013.42 -5950.52 
451.133 94.7145 439.166 
0.397077 4.12427 1.65023 
47.3464 -12.1517 4.60653 
6.96146 0.346738 13.8223 
193.598 -119.825 386.593 
-25.3255 -21.2209 12.7373 
1.47201 0.0084471 3.00034 
-20.564 -5.61999 -3.28142 
-2.45228 -8.70255 46.2322 
1.36394 3.07491 3.79669 
2.74072 5.30965 6.77394 
0.0505287 0.0523549 3.31719 
-17.6281 26.8052 -4.12486 
-9.88192 65.3211 7.36165 
8.45396 33.8434 18.4073 
-2.59489 23.6047 -8.89733 
-0.569467 0.695992 2.35269 
0.214285 -5.58984 -4.63939 
23.1453 -68.2906 -30.9935 
-1.03787 -25.646 25.0076 
-1.77893 2.54433 12.1058 
-7.31516 -1.37111 46.7185 
-0.863506 1.84612 24.5585 
-63.253 136.996 -189.519 
6.61306 -17.5255 60.775 
-149.864 -14.3852 314.028 
-1.0596 1.59509 31.3792 
2.79949 -2.63229 48.6807 
111.734 123.084 889.886 
4.11188e-07 9.14042e-07 13.6117 
-162.194 114.428 306.686 
-8.86447 18.5518 62.9375 
-2.14899 0.414696 9.02237 
0.900738 -14.3166 43.8881 
-27.0185 -18.8323 84.344 
-1.68316 -2.51022 -2.72661 
-0.285488 3.48362 30.6626 
-0.0932101 -0.0102166 -8.45208 
-0.0224911 -1.00389 2.19717 
0.581547 0.347442 13.0377 
6.84822 1.06338 28.9327 
-12.8031 -13.0092 84.9403 
4.09911 2.74011 18.9931 
1.17641e-09 9.44979e-11 13.6117 
11.1219 20.4703 82.7686 
-1.28986 -3.31241 7.90097 
-24.9971 18.5992 89.611 
-0.200013 -29.391 117.944 
2.04893 -1.33714 -7.38095 
-25.1876 -29.0936 6.9378 
2.76113 1.50487 27.3972 
-3.21392 2.05665 11.896 
1.17257 2.44439 13.7619 
16.0915 -15.699 29.5689 
-2.88146e-12 1.18667e-12 13.6117 
-0.64071 -1.699 12.2775 
-0.00014091 2.35017e-06 13.6074 
1.13169e-13 -1.14604e-14 13.6117 
-1.03619 2.84083 12.7345 
0.0365251 -0.017227 13.6775 
-6.53299 4.95199 46.1494 
-1364.56 -2912.79 -11022.1 
452.276 -228.053 617.147 
379.68 -280.708 541.778 
VECTORS moment double
0 0 0 
0 0 0 
0 0 0 
0 0 0 
0 0 0 
0 0 0 
0 0 0 
0 0 0 
0 0 0 
0 0 0 
0 0 0 
0 0 0 
0 0 0 
0 0 0 
0 0 0 
0 0 0 
0 0 0 
0 0 0 
0 0 0 
0 0 0 
0 0 0 
0 0 0 
0 0 0 
0 0 0 
0 0 0 
0 0 0 
0 0 0 
0 0 0 
0 0 0 
0 0 0 
0 0 0 
0 0 0 
0 0 0 
0 0 0 
0 0 0 
0 0 0 
0 0 0 
0 0 0 
0 0 0 
0 0 0 
0 0 0 
0 0 0 
0 0 0 
0 0 0 
0 0 0 
0 0 0 
0 0 0 
0 0 0 
0 0 0 
0 0 0 
0 0 0 
0 0 0 
0 0 0 
0 0 0 
0 0 0 
0 0 0 
0 0 0 
0 0 0 
0 0 0 
0 0 0 
0 0 0 
0 0 0 
0 0 0 
0 0 0 
0 0 0 
0 0 0 
0 0 0 
0 0 0 
0 0 0 
0 0 0 
0 0 0 
0 0 0 
0 0 0 
0 0 0 
0 0 0 
0 0 0 
0 0 0 
0 0 0 
0 0 0 
0 0 0 
0 0 0 
0 0 0 
0 0 0 
0 0 0 
0 0 0 
0 0 0 
0 0 0 
0 0 0 
0 0 0 
0 0 0 
0 0 0 
0 0 0 
0 0 0 
0 0 0 
0 0 0 
0 0 0 
0 0 0 
0 0 0 
0 0 0 
0 0 0 
0 0 0 
0 0 0 
0 0 0 
0 0 0 
0 0 0 
0 0 0 
0 0 0 
0 0 0 
0 0 0 
0 0 0 
0 0 0 
0 0 0 
0 0 0 
0 0 0 
0 0 0 
0 0 0 
0 0 0 
0 0 0 
0 0 0 
0 0 0 
0 0 0 
0 0 0 
0 0 0 
0 0 0 
0 0 0 
0 0 0 
0 0 0 
0 0 0 
0 0 0 
0 0 0 
0 0 0 
0 0 0 
0 0 0 
0 0 0 
0 0 0 
0 0 0 
0 0 0 
0 0 0 
0 0 0 
0 0 0 
0 0 0 
0 0 0 
0 0 0 
0 0 0 
0 0 0 
0 0 0 
0 0 0 
0 0 0 
0 0 0 
0 0 0 
0 0 0 
0 0 0 
0 0 0 
0 0 0 
0 0 0 
0 0 0 
0 0 0 
0 0 0 
0 0 0 
0 0 0 
0 0 0 
0 0 0 
0 0 0 
0 0 0 
0 0 0 
0 0 0 
0 0 0 
0 0 0 
0 0 0 
0 0 0 
0 0 0 
0 0 0 
0 0 0 
0 0 0 
0 0 0 
0 0 0 
0 0 0 
0 0 0 
0 0 0 
0 0 0 
0 0 0 
0 0 0 
0 0 0 
0 0 0 
0 0 0 
0 0 0 
0 0 0 
0 0 0 
0 0 0 
0 0 0 
0 0 0 
SCALARS num_collisions int 1
LOOKUP_TABLE default
1 
1 
1 
1 
1 
1 
1 
1 
1 
1 
1 
1 
1 
1 
1 
1 
1 
1 
1 
1 
1 
1 
1 
1 
1 
1 
1 
1 
1 
1 
1 
1 
1 
1 
1 
1 
1 
1 
1 
1 
1 
1 
1 
1 
1 
1 
1 
1 
1 
1 
1 
1 
1 
1 
1 
1 
1 
1 
1 
1 
1 
1 
1 
1 
1 
1 
1 
1 
1 
1 
1 
1 
1 
1 
1 
1 
1 
1 
1 
1 
1 
1 
1 
1 
1 
1 
1 
1 
1 
1 
1 
1 
1 
1 
1 
1 
1 
1 
1 
1 
1 
1 
1 
1 
1 
1 
1 
1 
1 
1 
1 
1 
1 
1 
1 
1 
1 
1 
1 
1 
1 
1 
1 
1 
1 
1 
1 
1 
1 
1 
1 
1 
1 
1 
1 
1 
1 
1 
1 
1 
1 
1 
1 
1 
1 
1 
1 
1 
1 
1 
1 
1 
1 
1 
1 
1 
1 
1 
1 
1 
1 
1 
1 
1 
1 
1 
1 
1 
1 
1 
1 
1 
1 
1 
1 
1 
1 
1 
1 
1 
1 
1 
1 
1 
1 
1 
1 
1 
1 
1 
1 
VECTORS pos double
-0.393103 -0.405104 -0.423378 
-0.375086 -0.00285666 -0.424728 
-0.449467 0.147716 -0.40832 
-0.444679 0.30962 -0.415558 
-0.289694 -0.427645 -0.426577 
-0.245167 0.406025 -0.431695 
-0.301609 0.359591 -0.430629 
-0.0748272 -0.377593 -0.435687 
-0.0129392 0.286325 -0.429093 
0.218401 -0.409895 -0.423827 
0.157095 -0.217962 -0.428954 
0.195264 0.00894531 -0.424222 
0.140661 0.246131 -0.433315 
0.20093 0.201314 -0.43185 
0.296067 0.392355 -0.362514 
0.332704 0.418693 -0.449322 
0.443402 -0.380046 -0.407708 
0.433371 -0.327637 -0.407741 
0.352867 0.0780255 -0.411291 
0.415768 0.114269 -0.421807 
-0.359892 -0.396935 -0.39749 
-0.408643 -0.431369 -0.356053 
-0.348392 -0.0069366 -0.353485 
-0.444942 0.224515 -0.373861 
-0.305992 -0.420977 -0.361567 
-0.176204 0.404028 -0.383756 
-0.117119 -0.43079 -0.380762 
-0.087498 -0.36148 -0.364439 
0.0761515 0.285878 -0.432434 
0.250832 -0.422597 -0.375013 
0.196413 -0.420029 -0.356905 
0.15159 -0.159425 -0.352107 
0.200736 -0.151126 -0.391091 
0.158375 -0.26575 -0.407392 
0.180124 0.036546 -0.356439 
0.248168 0.34857 -0.323493 
0.268912 0.414278 -0.285407 
0.449966 0.18503 -0.37897 
0.420245 0.348419 -0.406949 
0.431876 0.305366 -0.460665 
-0.415989 -0.42232 -0.274414 
-0.309836 0.013643 -0.290946 
-0.432357 0.270135 -0.331799 
-0.180566 -0.424248 -0.422725 
0.1885 -0.290712 -0.0900492 
-0.406966 0.355382 -0.334262 
-0.352204 0.342199 -0.365743 
0.300695 0.32812 -0.446454 
0.232448 -0.426314 -0.267089 
0.151351 -0.419112 -0.334182 
0.153328 0.0477052 -0.2875 
0.321067 -0.432069 -0.328518 
0.414314 -0.205016 -0.415159 
0.361147 -0.18638 -0.405841 
0.443535 0.240448 -0.413316 
0.448541 0.226595 -0.314897 
-0.156617 -0.417287 -0.346976 
-0.20897 -0.421185 -0.391872 
-0.283061 0.117231 0.206583 
-0.32518 0.406157 -0.377863 
0.251483 -0.399988 -0.199313 
0.112204 -0.302767 -0.366869 
0.214693 -0.293386 -0.352974 
0.228223 0.199216 -0.402374 
0.181874 0.419432 -0.419898 
0.308972 -0.306946 -0.31878 
0.377697 -0.271666 -0.305654 
0.354325 -0.365418 -0.303377 
0.329361 0.259371 -0.403685 
0.406375 0.328495 -0.345973 
-0.274794 -0.395589 -0.327034 
0.0487176 -0.345241 -0.310786 
0.305099 -0.153022 0.0992578 
0.233816 0.191361 -0.351486 
0.229132 0.270813 -0.341596 
0.39343 -0.432067 -0.273515 
0.42382 -0.217335 -0.338744 
0.411431 0.427834 -0.306942 
-0.450172 -0.023792 -0.131359 
-0.340685 0.439648 -0.295378 
-0.0851795 -0.375643 -0.305879 
0.297532 -0.152533 -0.367544 
0.351788 -0.127034 -0.338876 
0.442259 0.0173152 -0.305576 
0.445298 0.400896 -0.241899 
-0.436902 -0.00214971 -0.111669 
-0.108629 -0.370683 -0.197937 
-0.170986 0.420707 -0.357769 
0.0243228 -0.382791 -0.282672 
0.111745 -0.447642 -0.0211182 
0.227552 0.174066 -0.27744 
0.423582 -0.188258 -0.27837 
0.36274 -0.076427 -0.266652 
0.397197 -0.0546898 -0.299064 
0.343511 0.0557275 -0.327352 
0.357296 0.271088 -0.304431 
0.447779 0.389627 -0.146758 
-0.244248 -0.384735 -0.239852 
-0.192615 -0.320642 0.0681024 
-0.182651 0.389914 -0.325502 
0.156768 -0.41998 0.0354885 
0.224436 0.170156 -0.199757 
0.421023 -0.153663 -0.218661 
0.390456 0.0537892 -0.241234 
-0.449909 0.228406 -0.0592496 
0.183245 0.347402 -0.238709 
0.333508 -0.0840231 0.110747 
0.42118 0.394873 -0.0574406 
-0.177141 -0.410397 -0.131996 
0.341376 -0.410724 -0.0124802 
0.35464 -0.0176098 0.181155 
0.420718 -0.184793 0.0124748 
0.439111 -0.213954 0.097614 
0.404938 0.406546 0.0363979 
0.413564 -0.169191 -0.0416841 
0.202731 0.185723 -0.107514 
0.379046 -0.113497 -0.197494 
0.406599 -0.173094 -0.13245 
0.40722 0.0283461 -0.164076 
0.448059 0.241655 -0.220469 
0.00198033 -0.385191 0.0854301 
0.353303 -0.44861 0.277518 
0.422009 0.228259 -0.151816 
-0.146745 -0.403034 0.284443 
-0.193189 0.412358 0.354849 
-0.410156 -0.404221 0.389267 
-0.209899 0.389506 0.411464 
-0.5 0.213828 -0.106986 
-0.5 0.175305 -0.366627 
-0.5 0.380439 -0.330183 
-0.500001 -0.021345 -0.190479 
0.5 0.137243 -0.39357 
0.5 0.0607303 -0.329114 
0.5 -0.374664 0.21536 
0.5 -0.208061 -0.380299 
0.5 0.39739 -0.276178 
0.401 -0.5 -0.374706 
0.050225 -0.500003 -0.351069 
0.0964001 -0.500001 0.324755 
0.435984 -0.5 -0.254395 
0.370825 -0.5 -0.0217404 
0.291258 -0.5 -0.3644 
-0.152098 -0.500006 -0.376061 
-0.364294 -0.5 -0.16971 
0.156216 0.5 -0.450014 
-0.368827 0.5 -0.255392 
0.410222 0.500007 -0.377928 
0.0412804 0.043421 -0.500003 
0.201449 0.00649556 -0.500012 
-0.448934 0.120127 -0.5 
0.418554 0.354794 -0.500012 
-0.188789 -0.389375 -0.500015 
-0.120216 0.41669 -0.500053 
-0.385213 -0.00765287 -0.500006 
-0.404517 -0.401123 -0.500013 
0.426642 0.267376 -0.500025 
0.338558 -0.0103952 -0.5 
0.274823 0.190483 -0.500033 
-0.0536283 -0.399219 -0.500016 
0.0898368 -0.109201 -0.500002 
-0.449474 0.345513 -0.5 
0.362878 0.431596 -0.50002 
-0.194011 -0.0106694 -0.5 
0.429934 -0.301162 -0.5 
-0.28634 -0.208706 -0.5 
-0.094583 0.15352 -0.500004 
-0.179631 0.168938 -0.500003 
-0.298781 -0.44573 -0.500008 
0.226204 -0.398547 -0.500022 
0.0153683 0.257241 -0.500005 
0.27139 -0.19251 -0.5 
0.175083 0.197392 -0.500031 
0.208742 0.144509 -0.500002 
-0.259924 0.356643 -0.500024 
0.158024 -0.198986 -0.500027 
0.378607 -0.201971 -0.5 
0.381531 0.0912945 -0.5 
0.156216 0.450003 -0.5 
0.294717 0.0531028 -0.500003 
-0.316141 0.148464 -0.500003 
0.249443 0.361456 -0.500007 
0.447987 -0.00497658 -0.5 
-0.0310865 0.335871 -0.500003 
-0.44933 -0.203511 -0.5 
-0.13083 -0.14908 -0.5 
0.0381204 0.164159 -0.500003 
-0.279671 0.25267 -0.5 
-0.416059 0.236486 -0.500018 
-0.192709 0.405537 0.501707 
0.199822 -0.383952 0.500025 
-0.336843 -0.0615883 0.50003 
VECTORS dir_n double
0.113356 0.0805683 -0.990282 
-0.117507 0.0138826 -0.992975 
0.0106653 -0.551811 -0.833901 
-0.095925 0.717997 -0.689404 
0.655696 -0.20008 -0.728032 
-0.13917 -0.529059 -0.837095 
0.597459 0.0642985 -0.799317 
0.322149 -0.164929 -0.932212 
-0.559992 0.797454 0.224669 
0.0570067 -0.00792256 -0.998342 
0.0516843 0.171678 -0.983796 
-0.0522893 -0.0556626 -0.997079 
0.364197 -0.830891 -0.42069 
-0.823738 0.303041 -0.479189 
-0.176191 -0.274672 0.945258 
-0.556815 -0.252236 0.791413 
0.13188 -0.518685 -0.844733 
-0.0687494 0.529566 -0.845478 
0.57334 0.265412 -0.775137 
-0.685105 -0.459737 -0.565043 
-0.926613 0.2657 -0.266068 
0.132151 0.314563 -0.939993 
-0.397229 -0.0733966 -0.91478 
-0.101179 -0.984292 0.144677 
-0.713141 0.374335 -0.592709 
0.757505 -0.42202 -0.498081 
0.728772 0.684084 0.0303332 
0.0384637 -0.633492 -0.772793 
-0.831251 -0.530257 -0.166882 
-0.808656 0.548639 -0.2123 
0.293568 0.148262 -0.944371 
0.525098 -0.506953 -0.683572 
-0.870037 -0.43773 -0.226778 
-0.00329563 0.895503 -0.445043 
0.0854161 -0.362597 -0.928023 
-0.781958 -0.601186 -0.164671 
0.36703 -0.713197 -0.597193 
0.000759045 -0.956363 -0.292181 
-0.116008 -0.193659 -0.974186 
0.195417 -0.954943 -0.223374 
0.309419 0.281863 -0.908192 
-0.260652 -0.196194 -0.945287 
-0.150539 0.071829 -0.985991 
-0.142558 0.596185 -0.790089 
0.805865 -0.258106 -0.532881 
0.861437 -0.501261 -0.0816303 
0.00942854 -0.218631 0.975762 
-0.596106 0.386933 -0.70352 
-0.487471 0.144965 -0.861021 
0.954518 0.218881 -0.202454 
0.313925 -0.311644 -0.896844 
-0.596351 -0.359215 -0.717865 
-0.714212 0.0609061 -0.697274 
0.349228 -0.311843 -0.883625 
-0.128008 0.152785 -0.979934 
0.0278183 0.124736 -0.9918 
-0.137177 -0.468894 -0.872537 
0.923181 0.0698209 -0.377971 
0.198242 -0.938229 0.283595 
-0.25274 -0.462118 -0.850041 
-0.312597 -0.398899 -0.862069 
0.528261 0.849081 0.00157846 
-0.910187 0.138825 -0.390241 
0.194085 0.503633 0.841834 
-0.513171 0.611436 -0.60233 
0.976248 -0.195559 0.0932541 
-0.39854 -0.901383 -0.169334 
0.0690268 0.974195 -0.214892 
0.0227268 0.988125 -0.15196 
-0.153349 -0.589019 0.793436 
-0.0376931 -0.555544 -0.830633 
0.623834 -0.144586 -0.768066 
0.634634 0.57098 -0.520789 
0.0679196 0.400625 -0.913721 
0.177132 -0.551797 -0.81495 
-0.851301 0.359137 -0.382502 
0.524098 0.185511 -0.831208 
-0.342956 0.565739 -0.749881 
-0.266062 -0.0923902 -0.959518 
0.562974 -0.207791 -0.799927 
0.12258 0.294969 -0.947611 
-0.923376 0.365438 -0.117614 
-0.162037 -0.875211 -0.455795 
0.15511 0.868469 -0.470852 
0.2807 0.523302 -0.804588 
-0.685476 -0.727532 0.0286218 
-0.00568981 0.386293 -0.922359 
-0.522248 0.0749255 -0.849496 
-0.340397 0.934103 -0.107621 
0.207457 0.104235 0.972675 
-0.350951 -0.436904 0.82822 
-0.519362 -0.76716 -0.376468 
-0.0570368 -0.137075 -0.988917 
-0.746288 -0.571893 -0.340577 
-0.386442 0.18072 -0.904435 