# vtk DataFile Version 2.0
Generated by NetDEM
ASCII 
DATASET POLYDATA
POINTS 348 double
-0.41696 -0.405378 -0.462831 
-0.402894 -0.39942 -0.388103 
-0.403333 -0.203333 -0.450046 
-0.403333 -0.203333 -0.350085 
-0.412397 -0.0074239 -0.464583 
-0.415722 -0.00923765 -0.391211 
-0.40295 0.19705 -0.450047 
-0.40295 0.19705 -0.350087 
-0.402763 0.397237 -0.450048 
-0.402763 0.397237 -0.350088 
-0.264462 -0.432208 -0.459361 
-0.296313 -0.403472 -0.379814 
-0.203538 -0.203538 -0.450046 
-0.203538 -0.203538 -0.350084 
-0.203218 -0.00321788 -0.450047 
-0.203218 -0.00321788 -0.350086 
-0.175511 0.194958 -0.460284 
-0.211763 0.199966 -0.368106 
-0.246753 0.369105 -0.465015 
-0.153248 0.402836 -0.443295 
-0.0295767 -0.410234 -0.454418 
-0.0301258 -0.393847 -0.371709 
-0.00366947 -0.203669 -0.450046 
-0.00366947 -0.203669 -0.350084 
-0.00360232 -0.00360232 -0.450046 
-0.00360232 -0.00360232 -0.350085 
-0.0372009 0.393397 -0.465047 
0.0205408 0.366193 -0.390169 
0.189015 -0.398132 -0.464456 
0.187602 -0.396363 -0.392026 
0.174455 -0.212538 -0.464947 
0.195217 -0.209376 -0.39186 
0.172733 -0.00953765 -0.46272 
0.185485 -0.0136671 -0.383927 
0.196913 0.396913 -0.450046 
0.196913 0.396913 -0.350085 
0.396713 -0.403287 -0.450046 
0.396713 -0.403287 -0.350085 
0.39661 -0.20339 -0.450047 
0.39661 -0.20339 -0.350086 
0.396488 -0.00351175 -0.450046 
0.396488 -0.00351175 -0.350084 
0.396508 0.196508 -0.450046 
0.396508 0.196508 -0.350084 
0.374139 0.448746 -0.462208 
0.386497 0.379724 -0.40903 
-0.402894 -0.39942 -0.388103 
-0.401237 -0.403666 -0.31598 
-0.403333 -0.203333 -0.350085 
-0.403333 -0.203333 -0.250118 
-0.415722 -0.00923765 -0.391211 
-0.399289 -0.00282269 -0.311089 
-0.40295 0.19705 -0.350087 
-0.40295 0.19705 -0.250122 
-0.402763 0.397237 -0.350088 
-0.402763 0.397237 -0.250123 
-0.203538 -0.203538 -0.350084 
-0.203538 -0.203538 -0.250118 
-0.203218 -0.00321788 -0.350086 
-0.203218 -0.00321788 -0.25012 
-0.153248 0.402836 -0.443295 
-0.202345 0.424792 -0.369511 
-0.0301258 -0.393847 -0.371709 
-0.00267823 -0.403812 -0.284708 
-0.0301258 -0.393847 -0.371709 
-0.135348 -0.402903 -0.320676 
-0.00366947 -0.203669 -0.350084 
-0.00366947 -0.203669 -0.250118 
-0.00360232 -0.00360232 -0.350085 
-0.00360232 -0.00360232 -0.250119 
0.0205408 0.366193 -0.390169 
0.0691466 0.365237 -0.317989 
0.187602 -0.396363 -0.392026 
0.175586 -0.394718 -0.318217 
0.195217 -0.209376 -0.39186 
0.180931 -0.189215 -0.305034 
0.185485 -0.0136671 -0.383927 
0.187469 0.00217078 -0.309053 
0.196913 0.396913 -0.350085 
0.196913 0.396913 -0.25012 
0.396713 -0.403287 -0.350085 
0.396713 -0.403287 -0.250119 
0.39661 -0.20339 -0.350086 
0.39661 -0.20339 -0.25012 
0.396488 -0.00351175 -0.350084 
0.396488 -0.00351175 -0.250118 
0.396508 0.196508 -0.350084 
0.396508 0.196508 -0.250118 
-0.401237 -0.403666 -0.31598 
-0.409663 -0.404913 -0.239937 
-0.403333 -0.203333 -0.250118 
-0.403333 -0.203333 -0.150148 
-0.399289 -0.00282269 -0.311089 
-0.398042 0.00180404 -0.234208 
-0.40295 0.19705 -0.250122 
-0.40295 0.19705 -0.150154 
-0.402763 0.397237 -0.250123 
-0.402763 0.397237 -0.150154 
-0.203538 -0.203538 -0.250118 
-0.203538 -0.203538 -0.150146 
-0.203218 -0.00321788 -0.25012 
-0.203218 -0.00321788 -0.150151 
-0.211763 0.199966 -0.368106 
-0.159913 0.191181 -0.306214 
-0.202345 0.424792 -0.369511 
-0.20769 0.406892 -0.278248 
-0.00267823 -0.403812 -0.284708 
0.0196819 -0.400825 -0.200031 
-0.00366947 -0.203669 -0.250118 
-0.00366947 -0.203669 -0.150146 
-0.00360232 -0.00360232 -0.250119 
-0.00360232 -0.00360232 -0.150148 
0.175586 -0.394718 -0.318217 
0.198884 -0.399407 -0.229682 
0.180931 -0.189215 -0.305034 
0.187147 -0.198744 -0.219503 
0.187469 0.00217078 -0.309053 
0.192175 0.00145126 -0.235275 
0.196913 0.396913 -0.25012 
0.196913 0.396913 -0.15015 
0.396713 -0.403287 -0.250119 
0.396713 -0.403287 -0.150148 
0.39661 -0.20339 -0.25012 
0.39661 -0.20339 -0.15015 
0.396488 -0.00351175 -0.250118 
0.396488 -0.00351175 -0.150146 
0.396508 0.196508 -0.250118 
0.396508 0.196508 -0.150147 
-0.409663 -0.404913 -0.239937 
-0.407439 -0.408484 -0.156801 
-0.403333 -0.203333 -0.150148 
-0.403333 -0.203333 -0.0501729 
-0.398042 0.00180404 -0.234208 
-0.398275 -0.00372645 -0.151918 
-0.40295 0.19705 -0.150154 
-0.40295 0.19705 -0.0501809 
-0.402763 0.397237 -0.150154 
-0.402763 0.397237 -0.0501816 
-0.135348 -0.402903 -0.320676 
-0.214107 -0.403793 -0.252086 
-0.203538 -0.203538 -0.150146 
-0.203538 -0.203538 -0.0501711 
-0.203218 -0.00321788 -0.150151 
-0.203218 -0.00321788 -0.0501768 
-0.159913 0.191181 -0.306214 
-0.21461 0.194543 -0.228133 
0.0196819 -0.400825 -0.200031 
0.00369134 -0.397145 -0.119955 
-0.00366947 -0.203669 -0.150146 
-0.00366947 -0.203669 -0.0501708 
-0.00360232 -0.00360232 -0.150148 
-0.00360232 -0.00360232 -0.0501733 
0.198884 -0.399407 -0.229682 
0.193328 -0.40914 -0.158295 
0.187147 -0.198744 -0.219503 
0.197557 -0.223196 -0.130596 
0.192175 0.00145126 -0.235275 
0.187782 -0.00114626 -0.162228 
0.196913 0.396913 -0.15015 
0.196913 0.396913 -0.0501762 
0.396713 -0.403287 -0.150148 
0.396713 -0.403287 -0.0501741 
0.39661 -0.20339 -0.15015 
0.39661 -0.20339 -0.0501756 
0.396488 -0.00351175 -0.150146 
0.396488 -0.00351175 -0.0501713 
0.396508 0.196508 -0.150147 
0.396508 0.196508 -0.0501717 
-0.407439 -0.408484 -0.156801 
-0.410125 -0.406291 -0.076589 
-0.403333 -0.203333 -0.0501729 
-0.403333 -0.203333 0.0498059 
-0.398275 -0.00372645 -0.151918 
-0.417803 -0.00341385 -0.076973 
-0.40295 0.19705 -0.0501809 
-0.40295 0.19705 0.0497958 
-0.402763 0.397237 -0.0501816 
-0.402763 0.397237 0.0497948 
-0.203538 -0.203538 -0.0501711 
-0.203538 -0.203538 0.0498083 
-0.203218 -0.00321788 -0.0501768 
-0.203218 -0.00321788 0.0498008 
-0.21461 0.194543 -0.228133 
-0.205535 0.203387 -0.138733 
0.00369134 -0.397145 -0.119955 
-0.0149991 -0.399347 -0.0345348 
-0.00366947 -0.203669 -0.0501708 
-0.00366947 -0.203669 0.0498091 
-0.00360232 -0.00360232 -0.0501733 
-0.00360232 -0.00360232 0.0498059 
0.193328 -0.40914 -0.158295 
0.20885 -0.399463 -0.0764816 
0.197557 -0.223196 -0.130596 
0.193951 -0.20357 -0.0394001 
0.187782 -0.00114626 -0.162228 
0.189267 -0.00224808 -0.0829655 
0.196913 0.396913 -0.0501762 
0.196913 0.396913 0.0498015 
0.396713 -0.403287 -0.0501741 
0.396713 -0.403287 0.0498042 
0.39661 -0.20339 -0.0501756 
0.39661 -0.20339 0.0498029 
0.396488 -0.00351175 -0.0501713 
0.396488 -0.00351175 0.049808 
0.396508 0.196508 -0.0501717 
0.396508 0.196508 0.0498075 
-0.410125 -0.406291 -0.076589 
-0.410037 -0.402602 -0.000889265 
-0.403333 -0.203333 0.0498059 
-0.403333 -0.203333 0.149789 
-0.417803 -0.00341385 -0.076973 
-0.404326 -0.00385904 0.0133467 
-0.40295 0.19705 0.0497958 
-0.40295 0.19705 0.149777 
-0.402763 0.397237 0.0497948 
-0.402763 0.397237 0.149776 
-0.203538 -0.203538 0.0498083 
-0.203538 -0.203538 0.149792 
-0.203218 -0.00321788 0.0498008 
-0.203218 -0.00321788 0.149783 
-0.0149991 -0.399347 -0.0345348 
-0.00933153 -0.404408 0.0563474 
-0.00366947 -0.203669 0.0498091 
-0.00366947 -0.203669 0.149793 
-0.00360232 -0.00360232 0.0498059 
-0.00360232 -0.00360232 0.14979 
0.189267 -0.00224808 -0.0829655 
0.187775 -0.00469739 -0.0109237 
0.196913 0.396913 0.0498015 
0.196913 0.396913 0.149783 
0.396713 -0.403287 0.0498042 
0.396713 -0.403287 0.149787 
0.39661 -0.20339 0.0498029 
0.39661 -0.20339 0.149786 
0.396488 -0.00351175 0.049808 
0.396488 -0.00351175 0.149791 
0.396508 0.196508 0.0498075 
0.396508 0.196508 0.149791 
-0.410037 -0.402602 -0.000889265 
-0.403723 -0.403295 0.0892392 
-0.403333 -0.203333 0.149789 
-0.403333 -0.203333 0.249777 
-0.404326 -0.00385904 0.0133467 
-0.404555 -0.00372329 0.090927 
-0.40295 0.19705 0.149777 
-0.40295 0.19705 0.249763 
-0.402763 0.397237 0.149776 
-0.402763 0.397237 0.249762 
-0.203538 -0.203538 0.149792 
-0.203538 -0.203538 0.249781 
-0.203218 -0.00321788 0.149783 
-0.203218 -0.00321788 0.24977 
-0.00933153 -0.404408 0.0563474 
-0.00416009 -0.404386 0.149723 
-0.00366947 -0.203669 0.149793 
-0.00366947 -0.203669 0.249782 
-0.00360232 -0.00360232 0.14979 
-0.00360232 -0.00360232 0.249778 
0.187775 -0.00469739 -0.0109237 
0.197448 -0.00284585 0.0815282 
0.196913 0.396913 0.149783 
0.196913 0.396913 0.24977 
0.396713 -0.403287 0.149787 
0.396713 -0.403287 0.249774 
0.39661 -0.20339 0.149786 
0.39661 -0.20339 0.249774 
0.396488 -0.00351175 0.149791 
0.396488 -0.00351175 0.24978 
0.396508 0.196508 0.149791 
0.396508 0.196508 0.24978 
-0.403333 -0.203333 0.249777 
-0.403333 -0.203333 0.349771 
-0.40295 0.19705 0.249763 
-0.40295 0.19705 0.349755 
-0.402763 0.397237 0.249762 
-0.402763 0.397237 0.349754 
-0.203538 -0.203538 0.249781 
-0.203538 -0.203538 0.349774 
-0.203218 -0.00321788 0.24977 
-0.203218 -0.00321788 0.349763 
-0.00366947 -0.203669 0.249782 
-0.00366947 -0.203669 0.349776 
-0.00360232 -0.00360232 0.249778 
-0.00360232 -0.00360232 0.349772 
0.196913 0.396913 0.24977 
0.196913 0.396913 0.349763 
0.396713 -0.403287 0.249774 
0.396713 -0.403287 0.349767 
0.39661 -0.20339 0.249774 
0.39661 -0.20339 0.349767 
0.396488 -0.00351175 0.24978 
0.396488 -0.00351175 0.349773 
0.396508 0.196508 0.24978 
0.396508 0.196508 0.349773 
-0.284719 0.17214 -0.45279 
-0.269859 0.19732 -0.500052 
0.172733 -0.00953765 -0.46272 
0.205659 -0.00248228 -0.500027 
-0.412397 -0.0074239 -0.464583 
-0.406886 -0.0038478 -0.50004 
-0.0372009 0.393397 -0.465047 
-0.0351063 0.383813 -0.500002 
0.374139 0.448746 -0.462208 
0.384737 0.456862 -0.500006 
0.158265 0.21125 -0.46473 
0.162069 0.217898 -0.500003 
0.39661 -0.20339 -0.450047 
0.39661 -0.20339 -0.5 
-0.41696 -0.405378 -0.462831 
-0.39588 -0.395956 -0.500023 
0.396508 0.196508 -0.450046 
0.396508 0.196508 -0.5 
0.189015 -0.398132 -0.464456 
0.194262 -0.395584 -0.50004 
-0.153248 0.402836 -0.443295 
-0.137438 0.406638 -0.500009 
0.174455 -0.212538 -0.464947 
0.214135 -0.198051 -0.500015 
-0.246753 0.369105 -0.465015 
-0.255537 0.367933 -0.500004 
-0.264462 -0.432208 -0.459361 
-0.260924 -0.418973 -0.500005 
0.396488 -0.00351175 -0.450046 
0.396488 -0.00351175 -0.5 
-0.403333 -0.203333 -0.450046 
-0.403333 -0.203333 -0.5 
-0.40295 0.19705 -0.450047 
-0.40295 0.19705 -0.5 
-0.402763 0.397237 -0.450048 
-0.402763 0.397237 -0.5 
-0.203538 -0.203538 -0.450046 
-0.203538 -0.203538 -0.5 
-0.203218 -0.00321788 -0.450047 
-0.203218 -0.00321788 -0.5 
-0.00366947 -0.203669 -0.450046 
-0.00366947 -0.203669 -0.5 
-0.00360232 -0.00360232 -0.450046 
-0.00360232 -0.00360232 -0.5 
0.196913 0.396913 -0.450046 
0.196913 0.396913 -0.5 
0.396713 -0.403287 -0.450046 
0.396713 -0.403287 -0.5 
-0.0295767 -0.410234 -0.454418 
-0.00483373 -0.387909 -0.500017 
-0.175511 0.194958 -0.460284 
-0.203912 0.204825 -0.500013 
0.0408426 0.160872 -0.450139 
0.0395097 0.165876 -0.500003 
LINES 174 522
2 0 1
2 2 3
2 4 5
2 6 7
2 8 9
2 10 11
2 12 13
2 14 15
2 16 17
2 18 19
2 20 21
2 22 23
2 24 25
2 26 27
2 28 29
2 30 31
2 32 33
2 34 35
2 36 37
2 38 39
2 40 41
2 42 43
2 44 45
2 46 47
2 48 49
2 50 51
2 52 53
2 54 55
2 56 57
2 58 59
2 60 61
2 62 63
2 64 65
2 66 67
2 68 69
2 70 71
2 72 73
2 74 75
2 76 77
2 78 79
2 80 81
2 82 83
2 84 85
2 86 87
2 88 89
2 90 91
2 92 93
2 94 95
2 96 97
2 98 99
2 100 101
2 102 103
2 104 105
2 106 107
2 108 109
2 110 111
2 112 113
2 114 115
2 116 117
2 118 119
2 120 121
2 122 123
2 124 125
2 126 127
2 128 129
2 130 131
2 132 133
2 134 135
2 136 137
2 138 139
2 140 141
2 142 143
2 144 145
2 146 147
2 148 149
2 150 151
2 152 153
2 154 155
2 156 157
2 158 159
2 160 161
2 162 163
2 164 165
2 166 167
2 168 169
2 170 171
2 172 173
2 174 175
2 176 177
2 178 179
2 180 181
2 182 183
2 184 185
2 186 187
2 188 189
2 190 191
2 192 193
2 194 195
2 196 197
2 198 199
2 200 201
2 202 203
2 204 205
2 206 207
2 208 209
2 210 211
2 212 213
2 214 215
2 216 217
2 218 219
2 220 221
2 222 223
2 224 225
2 226 227
2 228 229
2 230 231
2 232 233
2 234 235
2 236 237
2 238 239
2 240 241
2 242 243
2 244 245
2 246 247
2 248 249
2 250 251
2 252 253
2 254 255
2 256 257
2 258 259
2 260 261
2 262 263
2 264 265
2 266 267
2 268 269
2 270 271
2 272 273
2 274 275
2 276 277
2 278 279
2 280 281
2 282 283
2 284 285
2 286 287
2 288 289
2 290 291
2 292 293
2 294 295
2 296 297
2 298 299
2 300 301
2 302 303
2 304 305
2 306 307
2 308 309
2 310 311
2 312 313
2 314 315
2 316 317
2 318 319
2 320 321
2 322 323
2 324 325
2 326 327
2 328 329
2 330 331
2 332 333
2 334 335
2 336 337
2 338 339
2 340 341
2 342 343
2 344 345
2 346 347
POINT_DATA 348
SCALARS id int 1
LOOKUP_TABLE default
0
25
1
26
2
27
3
28
4
29
5
30
6
31
7
32
8
58
9
34
10
35
11
36
12
37
14
39
15
40
16
41
17
42
19
44
20
45
21
46
22
47
23
48
24
49
25
50
26
51
27
52
28
53
29
54
31
56
32
57
34
59
35
60
35
80
36
61
37
62
39
64
40
65
41
66
42
67
44
69
45
70
46
71
47
72
48
73
50
75
51
76
52
77
53
78
54
79
56
81
57
82
58
83
59
84
60
85
61
86
62
87
65
90
66
91
67
92
69
94
70
95
71
96
72
97
73
98
75
100
76
101
77
102
78
103
79
104
80
105
81
106
82
107
83
108
85
110
86
111
87
112
90
115
91
116
92
117
94
119
95
120
96
121
97
122
98
123
100
125
101
126
102
127
103
128
104
129
106
131
107
132
108
133
110
135
111
136
112
137
115
140
116
141
117
142
119
144
120
145
121
146
122
147
123
148
125
150
126
151
127
152
128
153
129
154
131
156
132
157
135
160
136
161
137
162
142
167
144
169
145
170
146
171
147
172
148
173
150
175
151
176
152
177
153
178
154
179
156
181
157
182
160
185
161
186
162
187
167
192
169
194
170
195
171
196
172
197
173
198
176
201
178
203
179
204
181
206
182
207
186
211
187
212
194
219
195
220
196
221
197
222
198
223
33
4
17
4
2
4
14
4
24
4
18
4
21
4
0
4
23
4
15
4
34
4
16
4
9
4
5
4
22
4
1
4
3
4
4
4
6
4
7
4
11
4
12
4
19
4
20
4
10
4
8
4
13
4
CELL_DATA 174
VECTORS force double
-2.64318 3.00399 -71.8134 
0 0 -72.9896 
-9.06194 0.818284 -99.1404 
0 0 -74.8664 
0 0 -75.2783 
1.01413 0.17309 -6.34416 
0 0 -72.5886 
0 0 -73.6107 
-7.14041 -2.56674 -34.5477 
-11.5794 -4.59265 -4.87478 
12.1109 6.88743 -44.0379 
0 0 -72.8039 
0 0 -73.6079 
-10.7803 6.28236 -22.8823 
-0.980595 3.65027 -113.567 
0.727995 -0.440354 -46.8202 
0.575987 2.57136 -98.6805 
0 0 -73.3298 
0 0 -72.7294 
0 0 -74.071 
0 0 -72.3227 
0 0 -72.7778 
-0.104413 32.1425 -39.9765 
0.0740192 -0.820606 -68.8407 
0 0 -61.2883 
-6.48677 2.91279 -99.6636 
0 0 -63.7486 
0 0 -64.2027 
0 0 -60.6995 
0 0 -62.2657 
4.46023 -0.184052 -23.6171 
-6.01819 5.58701 -29.4581 
7.63629 0.844793 -0.747715 
0 0 -60.7465 
0 0 -61.6519 
-0.451493 -0.573266 -3.54357 
3.75023 -3.50163 -95.8655 
1.77614 -1.24563 -30.5091 
-1.36666 2.3019 -83.9973 
0 0 -62.0414 
0 0 -61.2806 
0 0 -62.3388 
0 0 -60.5459 
0 0 -60.9272 
2.80679 -2.16519 -63.4978 
0 0 -50.4253 
-5.65647 6.66846 -108.866 
0 0 -53.5885 
0 0 -54.0928 
0 0 -49.6037 
0 0 -51.8363 
1.82545 6.14372 -27.9246 
4.97991 -3.47183 -17.8476 
-7.59891 -1.67608 -22.4024 
0 0 -49.4355 
0 0 -50.4582 
3.78261 -3.03994 -69.8787 
-0.0459029 0.353279 -24.0762 
-5.55005 -1.58761 -82.9278 
0 0 -51.6888 
0 0 -50.7331 
0 0 -51.4219 
0 0 -49.5925 
0 0 -49.8769 
-1.01041 -0.40879 -68.7908 
0 0 -40.4446 
8.61072 1.66411 -124.242 
0 0 -44.2528 
0 0 -44.8019 
-0.894256 -0.537408 -0.126057 
0 0 -39.397 
0 0 -42.2632 
5.54171 4.02963 -25.0141 
0.719992 -3.22946 -16.162 
0 0 -39.004 
0 0 -40.1209 
2.13421 2.20433 -42.3584 
2.04822 13.4704 -50.1824 
-12.8546 -10.2123 -110.86 
0 0 -42.2069 
0 0 -41.0669 
0 0 -41.3524 
0 0 -39.5324 
0 0 -39.7098 
-2.4959 10.2201 -65.9228 
0 0 -31.2372 
-3.18966 -5.89052 -160.869 
0 0 -35.443 
0 0 -36.0133 
0 0 -30.034 
0 0 -33.3256 
1.69693 0.250213 -13.6041 
1.41857 1.88303 -11.0665 
0 0 -29.4599 
0 0 -30.6039 
1.09402 3.82848 -18.6766 
0.914174 -0.079059 -23.1836 
-4.03692 -2.63761 -170.418 
0 0 -33.3605 
0 0 -32.1016 
0 0 -32.0189 
0 0 -30.2897 
0 0 -30.367 
-24.1094 8.32255 -111.747 
0 0 -22.6007 
-21.4949 -10.099 -206.233 
0 0 -26.77 
0 0 -27.3187 
0 0 -21.3853 
0 0 -24.713 
-0.374375 -0.1491 -11.8589 
0 0 -20.7332 
0 0 -21.7952 
18.066 5.61162 -318.455 
0 0 -24.8167 
0 0 -23.5649 
0 0 -23.2232 
0 0 -21.7023 
0 0 -21.7041 
22.1257 -17.2678 -75.8637 
0 0 -14.4305 
38.3003 -2.8736 -70.5469 
0 0 -17.9443 
0 0 -18.4024 
0 0 -13.4094 
0 0 -16.2188 
1.44785 0.774445 -10.5081 
0 0 -12.8344 
0 0 -13.6701 
122.543 14.1909 -275.216 
0 0 -16.3465 
0 0 -15.2875 
0 0 -14.868 
0 0 -13.7031 
0 0 -13.668 
0 0 -6.87239 
0 0 -8.97373 
0 0 -9.25072 
0 0 -6.27955 
0 0 -7.93393 
0 0 -5.94171 
0 0 -6.40668 
0 0 -8.02347 
0 0 -7.39128 
0 0 -7.10199 
0 0 -6.45759 
0 0 -6.42723 
-73.4676 -134.855 189.55 
-1.36268 -1.91206 111.026 
11.5047 -2.33318 104.592 
1.81528 -2.43477 22.7944 
-2.57015 -30.8313 54.5417 
-0.677189 -1.35025 12.9187 
0 0 86.5148 
1.40084 -3.45318 79.3311 
0 0 85.2842 
4.75717 -8.14264 133.403 
-16.8643 -8.96032 35.7648 
-0.767711 -0.684478 63.3522 
9.48276 3.54592 19.1114 
-0.511017 -1.14809 19.4893 
0 0 84.7877 
0 0 85.4113 
0 0 86.9658 
0 0 87.3521 
0 0 85.1172 
0 0 85.8361 
0 0 85.4297 
0 0 86.1789 
0 0 85.5189 
0 0 85.011 
-10.2227 -2.20379 64.0791 
6.73238 7.86122 47.4481 
0.476721 -0.765298 12.3103 
VECTORS moment double
0 0 0 
0 0 0 
0 0 0 
0 0 0 
0 0 0 
0 0 0 
0 0 0 
0 0 0 
0 0 0 
0 0 0 
0 0 0 
0 0 0 
0 0 0 
0 0 0 
0 0 0 
0 0 0 
0 0 0 
0 0 0 
0 0 0 
0 0 0 
0 0 0 
0 0 0 
0 0 0 
0 0 0 
0 0 0 
0 0 0 
0 0 0 
0 0 0 
0 0 0 
0 0 0 
0 0 0 
0 0 0 
0 0 0 
0 0 0 
0 0 0 
0 0 0 
0 0 0 
0 0 0 
0 0 0 
0 0 0 
0 0 0 
0 0 0 
0 0 0 
0 0 0 
0 0 0 
0 0 0 
0 0 0 
0 0 0 
0 0 0 
0 0 0 
0 0 0 
0 0 0 
0 0 0 
0 0 0 
0 0 0 
0 0 0 
0 0 0 
0 0 0 
0 0 0 
0 0 0 
0 0 0 
0 0 0 
0 0 0 
0 0 0 
0 0 0 
0 0 0 
0 0 0 
0 0 0 
0 0 0 
0 0 0 
0 0 0 
0 0 0 
0 0 0 
0 0 0 
0 0 0 
0 0 0 
0 0 0 
0 0 0 
0 0 0 
0 0 0 
0 0 0 
0 0 0 
0 0 0 
0 0 0 
0 0 0 
0 0 0 
0 0 0 
0 0 0 
0 0 0 
0 0 0 
0 0 0 
0 0 0 
0 0 0 
0 0 0 
0 0 0 
0 0 0 
0 0 0 
0 0 0 
0 0 0 
0 0 0 
0 0 0 
0 0 0 
0 0 0 
0 0 0 
0 0 0 
0 0 0 
0 0 0 
0 0 0 
0 0 0 
0 0 0 
0 0 0 
0 0 0 
0 0 0 
0 0 0 
0 0 0 
0 0 0 
0 0 0 
0 0 0 
0 0 0 
0 0 0 
0 0 0 
0 0 0 
0 0 0 
0 0 0 
0 0 0 
0 0 0 
0 0 0 
0 0 0 
0 0 0 
0 0 0 
0 0 0 
0 0 0 
0 0 0 
0 0 0 
0 0 0 
0 0 0 
0 0 0 
0 0 0 
0 0 0 
0 0 0 
0 0 0 
0 0 0 
0 0 0 
0 0 0 
0 0 0 
0 0 0 
0 0 0 
0 0 0 
0 0 0 
0 0 0 
0 0 0 
0 0 0 
0 0 0 
0 0 0 
0 0 0 
0 0 0 
0 0 0 
0 0 0 
0 0 0 
0 0 0 
0 0 0 
0 0 0 
0 0 0 
0 0 0 
0 0 0 
0 0 0 
0 0 0 
0 0 0 
0 0 0 
0 0 0 
0 0 0 
0 0 0 
0 0 0 
0 0 0 
SCALARS num_collisions int 1
LOOKUP_TABLE default
1 
1 
1 
1 
1 
1 
1 
1 
1 
1 
1 
1 
1 
1 
1 
1 
1 
1 
1 
1 
1 
1 
1 
1 
1 
1 
1 
1 
1 
1 
1 
1 
1 
1 
1 
1 
1 
1 
1 
1 
1 
1 
1 
1 
1 
1 
1 
1 
1 
1 
1 
1 
1 
1 
1 
1 
1 
1 
1 
1 
1 
1 
1 
1 
1 
1 
1 
1 
1 
1 
1 
1 
1 
1 
1 
1 
1 
1 
1 
1 
1 
1 
1 
1 
1 
1 
1 
1 
1 
1 
1 
1 
1 
1 
1 
1 
1 
1 
1 
1 
1 
1 
1 
1 
1 
1 
1 
1 
1 
1 
1 
1 
1 
1 
1 
1 
1 
1 
1 
1 
1 
1 
1 
1 
1 
1 
1 
1 
1 
1 
1 
1 
1 
1 
1 
1 
1 
1 
1 
1 
1 
1 
1 
1 
1 
1 
1 
1 
1 
1 
1 
1 
1 
1 
1 
1 
1 
1 
1 
1 
1 
1 
1 
1 
1 
1 
1 
1 
1 
1 
1 
1 
1 
1 
VECTORS pos double
-0.392177 -0.4011 -0.423968 
-0.403333 -0.203333 -0.400066 
-0.399756 -0.00447926 -0.424758 
-0.40295 0.19705 -0.400068 
-0.402763 0.397237 -0.400068 
-0.261666 -0.405099 -0.417197 
-0.203538 -0.203538 -0.400065 
-0.203218 -0.00321788 -0.400067 
-0.198646 0.223977 -0.423155 
-0.199994 0.392069 -0.454224 
-0.0120737 -0.384027 -0.42023 
-0.00366947 -0.203669 -0.400066 
-0.00360232 -0.00360232 -0.400066 
-0.00775707 0.37436 -0.435299 
0.196931 -0.398614 -0.425669 
0.200396 -0.197614 -0.428335 
0.208895 8.49552e-05 -0.425596 
0.196913 0.396913 -0.400066 
0.396713 -0.403287 -0.400066 
0.39661 -0.20339 -0.400067 
0.396488 -0.00351175 -0.400065 
0.396508 0.196508 -0.400066 
0.373071 0.410283 -0.429588 
-0.400208 -0.397941 -0.350763 
-0.403333 -0.203333 -0.300102 
-0.387804 -0.00410855 -0.344838 
-0.40295 0.19705 -0.300106 
-0.402763 0.397237 -0.300106 
-0.203538 -0.203538 -0.300102 
-0.203218 -0.00321788 -0.300104 
-0.181985 0.384569 -0.389255 
-0.0291275 -0.398599 -0.335064 
-0.0859448 -0.414972 -0.343829 
-0.00366947 -0.203669 -0.300102 
-0.00360232 -0.00360232 -0.300103 
0.0187806 0.344127 -0.347028 
0.199218 -0.400406 -0.346624 
0.197785 -0.18367 -0.343685 
0.214115 -0.00136441 -0.349337 
0.196913 0.396913 -0.300103 
0.396713 -0.403287 -0.300103 
0.39661 -0.20339 -0.300104 
0.396488 -0.00351175 -0.300102 
0.396508 0.196508 -0.300102 
-0.390003 -0.39907 -0.270423 
-0.403333 -0.203333 -0.200134 
-0.385502 -0.00911804 -0.266564 
-0.40295 0.19705 -0.200139 
-0.402763 0.397237 -0.20014 
-0.203538 -0.203538 -0.200133 
-0.203218 -0.00321788 -0.200137 
-0.179183 0.226215 -0.33748 
-0.202352 0.414246 -0.313606 
0.00782242 -0.407181 -0.233543 
-0.00366947 -0.203669 -0.200133 
-0.00360232 -0.00360232 -0.200135 
0.203982 -0.395911 -0.266528 
0.199966 -0.177924 -0.263503 
0.217424 -0.00225678 -0.273046 
0.196913 0.396913 -0.200136 
0.396713 -0.403287 -0.200135 
0.39661 -0.20339 -0.200136 
0.396488 -0.00351175 -0.200133 
0.396508 0.196508 -0.200134 
-0.390615 -0.399144 -0.189218 
-0.403333 -0.203333 -0.100162 
-0.386199 -0.0115092 -0.185328 
-0.40295 0.19705 -0.100169 
-0.402763 0.397237 -0.10017 
-0.176829 -0.408655 -0.299703 
-0.203538 -0.203538 -0.100161 
-0.203218 -0.00321788 -0.100166 
-0.194951 0.201014 -0.261314 
0.0152697 -0.387857 -0.15676 
-0.00366947 -0.203669 -0.10016 
-0.00360232 -0.00360232 -0.100163 
0.202328 -0.395159 -0.190326 
0.200836 -0.202546 -0.160749 
0.219786 0.00192601 -0.197185 
0.196913 0.396913 -0.100165 
0.396713 -0.403287 -0.100163 
0.39661 -0.20339 -0.100165 
0.396488 -0.00351175 -0.100161 
0.396508 0.196508 -0.100161 
-0.386353 -0.397226 -0.109626 
-0.403333 -0.203333 -0.000186122 
-0.394699 -0.00662577 -0.1056 
-0.40295 0.19705 -0.000195378 
-0.402763 0.397237 -0.000196154 
-0.203538 -0.203538 -0.000183997 
-0.203218 -0.00321788 -0.000190823 
-0.207771 0.207773 -0.177189 
0.0115449 -0.381886 -0.0763012 
-0.00366947 -0.203669 -0.000183413 
-0.00360232 -0.00360232 -0.000186281 
0.209312 -0.393809 -0.11192 
0.203223 -0.201071 -0.0756041 
0.215978 0.0146029 -0.121369 
0.196913 0.396913 -0.000190146 
0.396713 -0.403287 -0.000187714 
0.39661 -0.20339 -0.000188959 
0.396488 -0.00351175 -0.000184334 
0.396508 0.196508 -0.000184724 
-0.390543 -0.416997 -0.0351537 
-0.403333 -0.203333 0.0997941 
-0.3897 -0.00610588 -0.0251934 
-0.40295 0.19705 0.0997827 
-0.402763 0.397237 0.0997817 
-0.203538 -0.203538 0.0997969 
-0.203218 -0.00321788 0.0997882 
0.00407 -0.397963 0.001445 
-0.00366947 -0.203669 0.0997979 
-0.00360232 -0.00360232 0.0997944 
0.205076 0.00226167 -0.0456906 
0.196913 0.396913 0.0997888 
0.396713 -0.403287 0.0997919 
0.39661 -0.20339 0.099791 
0.396488 -0.00351175 0.0997963 
0.396508 0.196508 0.099796 
-0.384866 -0.404896 0.0489992 
-0.403333 -0.203333 0.199779 
-0.391136 0.00759382 0.0554903 
-0.40295 0.19705 0.199766 
-0.402763 0.397237 0.199764 
-0.203538 -0.203538 0.199782 
-0.203218 -0.00321788 0.199772 
0.00274883 -0.39472 0.0987701 
-0.00366947 -0.203669 0.199784 
-0.00360232 -0.00360232 0.19978 
0.218889 0.0027001 0.0315402 
0.196913 0.396913 0.199773 
0.396713 -0.403287 0.199776 
0.39661 -0.20339 0.199776 
0.396488 -0.00351175 0.199781 
0.396508 0.196508 0.199781 
-0.403333 -0.203333 0.299769 
-0.40295 0.19705 0.299754 
-0.402763 0.397237 0.299753 
-0.203538 -0.203538 0.299773 
-0.203218 -0.00321788 0.299761 
-0.00366947 -0.203669 0.299775 
-0.00360232 -0.00360232 0.29977 
0.196913 0.396913 0.299762 
0.396713 -0.403287 0.299766 
0.39661 -0.20339 0.299766 
0.396488 -0.00351175 0.299772 
0.396508 0.196508 0.299772 
-0.269859 0.19732 -0.500052 
0.205659 -0.00248228 -0.500027 
-0.406886 -0.0038478 -0.50004 
-0.0351063 0.383813 -0.500002 
0.384737 0.456862 -0.500006 
0.162069 0.217898 -0.500003 
0.39661 -0.20339 -0.5 
-0.39588 -0.395956 -0.500023 
0.396508 0.196508 -0.5 
0.194262 -0.395584 -0.50004 
-0.137438 0.406638 -0.500009 
0.214135 -0.198051 -0.500015 
-0.255537 0.367933 -0.500004 
-0.260924 -0.418973 -0.500005 
0.396488 -0.00351175 -0.5 
-0.403333 -0.203333 -0.5 
-0.40295 0.19705 -0.5 
-0.402763 0.397237 -0.5 
-0.203538 -0.203538 -0.5 
-0.203218 -0.00321788 -0.5 
-0.00366947 -0.203669 -0.5 
-0.00360232 -0.00360232 -0.5 
0.196913 0.396913 -0.5 
0.396713 -0.403287 -0.5 
-0.00483373 -0.387909 -0.500017 
-0.203912 0.204825 -0.500013 
0.0395097 0.165876 -0.500003 
VECTORS dir_n double
-0.0714298 -0.0127317 -0.997364 
1.37006e-17 0 -1 
0.190558 -0.0393379 -0.980887 
1.33571e-17 0 -1 
1.3284e-17 0 -1 
0.427773 -0.256144 -0.866834 
1.37763e-17 0 -1 
1.3585e-17 0 -1 
0.417724 0.106362 -0.902327 
-0.765159 -0.410061 -0.496368 
-0.206339 -0.0382711 -0.977732 
1.37355e-17 0 -1 
1.35855e-17 0 -1 
-0.206849 0.341174 -0.916959 
0.218722 -0.0410027 -0.974925 
-0.280868 0.162628 -0.945867 
-0.139432 -0.0261875 -0.989885 
1.3637e-17 0 -1 
1.37496e-17 0 -1 
1.35006e-17 0 -1 
1.38269e-17 0 -1 
1.37404e-17 0 -1 
-0.109475 0.626084 -0.772033 
0.156171 0.117987 -0.980658 
1.63163e-17 0 -1 
0.131208 -0.0925026 -0.98703 
1.56866e-17 0 -1 
1.55757e-17 0 -1 
1.64746e-17 0 -1 
1.60602e-17 0 -1 
0.39884 -0.489573 -0.7754 
-0.247074 0.141306 -0.958638 
0.548525 -0.127095 -0.826418 
1.64618e-17 0 -1 
1.62201e-17 0 -1 
-0.261262 0.132222 -0.956169 
0.395559 0.0626089 -0.916304 
-0.0430381 0.0496177 -0.997841 
-0.111448 -0.0605753 -0.991922 
1.61183e-17 0 -1 
1.63184e-17 0 -1 
1.60414e-17 0 -1 
1.65164e-17 0 -1 
1.6413e-17 0 -1 
0.257232 0.143171 -0.955685 
1.98313e-17 0 -1 
0.340299 -0.0229293 -0.940038 
1.86607e-17 0 -1 
1.84867e-17 0 -1 
2.01598e-17 0 -1 
1.92915e-17 0 -1 
-0.796795 0.021438 -0.60387 
0.319342 0.164135 -0.933317 
-0.458557 0.0384146 -0.887834 
2.02284e-17 0 -1 
1.98184e-17 0 -1 
-0.174898 0.256806 -0.950506 
-0.247705 0.379996 -0.891204 
-0.0271411 -0.0238957 -0.999346 
1.93466e-17 0 -1 
1.9711e-17 0 -1 
1.9447e-17 0 -1 
2.01643e-17 0 -1 
2.00494e-17 0 -1 
0.124498 0.133174 -0.983242 
2.47252e-17 0 -1 
0.346352 0.0651798 -0.935838 
2.25975e-17 0 -1 
2.23205e-17 0 -1 
-0.665098 0.260545 0.699829 
2.53826e-17 0 -1 
2.36613e-17 0 -1 
0.735576 -0.0432871 -0.676058 
-0.185487 0.189496 -0.964202 
2.56384e-17 0 -1 
2.49247e-17 0 -1 
0.0750977 0.248282 -0.965773 
-0.186804 0.439398 -0.878655 
0.066874 0.0688791 -0.995381 
2.36928e-17 0 -1 
2.43505e-17 0 -1 
2.41824e-17 0 -1 
2.52957e-17 0 -1 
2.51827e-17 0 -1 
0.137792 0.160413 -0.977385 
3.20131e-17 0 -1 
0.400334 0.0981078 -0.911102 
2.82143e-17 0 -1 
2.77675e-17 0 -1 
3.32956e-17 0 -1 
3.0007e-17 0 -1 
0.271786 0.100768 -0.957067 
-0.0287802 0.239179 -0.970549 
3.39445e-17 0 -1 
3.26756e-17 0 -1 
0.0691331 0.0152326 -0.997491 
-0.117723 0.0763653 -0.990106 
-0.0644676 0.0333223 -0.997363 
2.99756e-17 0 -1 
3.11511e-17 0 -1 
3.12316e-17 0 -1 
3.30145e-17 0 -1 
3.29305e-17 0 -1 
0.226723 0.165136 -0.959858 
4.42464e-17 0 -1 
-0.113507 0.222631 -0.968272 
3.73553e-17 0 -1 
3.66049e-17 0 -1 
4.67611e-17 0 -1 
4.04645e-17 0 -1 
-0.178346 0.29826 -0.937675 
4.82317e-17 0 -1 
4.58817e-17 0 -1 
0.0433387 0.0794067 -0.9959 
4.02954e-17 0 -1 
4.24361e-17 0 -1 
4.30603e-17 0 -1 
4.6078e-17 0 -1 
4.60741e-17 0 -1 
-0.124333 0.121042 -0.98483 
6.92977e-17 0 -1 
0.044241 0.0676262 -0.996729 
5.5728e-17 0 -1 
5.43408e-17 0 -1 
7.45743e-17 0 -1 
6.16569e-17 0 -1 
-0.510249 0.206742 -0.834808 
7.79158e-17 0 -1 
7.31524e-17 0 -1 
-0.255972 0.0461621 -0.965581 
6.11752e-17 0 -1 
6.5413e-17 0 -1 
6.72586e-17 0 -1 
7.29763e-17 0 -1 
7.31635e-17 0 -1 
1.4551e-16 0 -1 
1.11436e-16 0 -1 
1.081e-16 0 -1 
1.59247e-16 0 -1 
1.26041e-16 0 -1 
1.68302e-16 0 -1 
1.56087e-16 0 -1 
1.24634e-16 0 -1 
1.35295e-16 0 -1 
1.40806e-16 0 -1 
1.54856e-16 0 -1 
1.55588e-16 0 -1 
5.81411e-17 8.18992e-17 1 
-8.02907e-17 7.54377e-17 1 
-9.65335e-18 8.57938e-17 1 
2.5755e-18 8.01004e-17 1 
-1.37309e-16 5.35434e-17 1 
2.4042e-16 1.05481e-16 1 
1.15587e-17 0 1 
-1.10432e-16 -1.39676e-16 1 
1.17255e-17 0 1 
-5.62849e-17 9.17173e-17 1 
-4.60987e-17 -7.08759e-17 1 
1.93886e-17 5.90826e-17 1 
-9.27914e-17 -6.99587e-17 1 
1.68368e-16 -5.97184e-17 1 
1.17942e-17 0 1 
1.17081e-17 0 1 
1.14988e-17 0 1 
1.14479e-17 0 1 
1.17485e-17 0 1 
1.16501e-17 0 1 
1.17055e-17 0 1 
1.16038e-17 0 1 
1.16933e-17 0 1 
1.17632e-17 0 1 
-3.58253e-17 2.40776e-17 1 
-5.48508e-17 -4.77497e-17 1 
1.60237e-16 -1.9201e-16 1 
VECTORS dir_s double
0.534775 0.843569 -0.0490682 
1 0 0 
-0.967385 0.162351 -0.194446 
1 0 0 
1 0 0 
-0.584531 0.653096 -0.481445 
1 0 0 
1 0 0 
-0.865696 -0.254894 -0.430812 
-0.632964 0.337983 0.696509 
0.904639 0.373346 -0.205528 
1 0 0 
1 0 0 
-0.917687 -0.392603 0.0609366 
-0.92744 0.301857 -0.220764 
0.818043 -0.474839 -0.324553 
0.931143 0.336683 -0.140064 
1 0 0 
1 0 0 
1 0 0 
1 0 0 
1 0 0 
0.993235 0.0386482 -0.1095 
-0.751179 -0.630489 -0.195483 
1 0 0 
-0.839393 0.519363 -0.160256 
1 0 0 
1 0 0 
1 0 0 
1 0 0 
-0.27495 0.74282 -0.610427 
0.762472 0.638876 -0.102343 
0.826042 0.235476 0.512061 
1 0 0 
1 0 0 
0.386858 -0.893197 -0.229218 
-0.881522 -0.254143 -0.397908 
0.744482 -0.664456 -0.0651505 
0.727462 0.675041 -0.122958 
1 0 0 
1 0 0 
1 0 0 
1 0 0 
1 0 0 
-0.73103 -0.617962 -0.289341 
1 0 0 
-0.918286 0.207029 -0.337475 
1 0 0 
1 0 0 
1 0 0 
1 0 0 
0.590262 0.241403 -0.77027 
-0.101609 -0.973277 -0.20593 
0.707488 -0.588787 -0.390885 
1 0 0 
1 0 0 
0.57897 -0.754014 -0.310252 
0.498788 -0.738579 -0.453554 
-0.992526 0.119629 0.0240954 
1 0 0 
1 0 0 
1 0 0 
1 0 0 
1 0 0 
-0.695877 -0.694664 -0.1822 
1 0 0 
-0.919916 -0.171892 -0.352431 
1 0 0 
1 0 0 
-0.660443 -0.642603 -0.388428 
1 0 0 
1 0 0 
-0.631195 0.318613 -0.707163 
0.481538 -0.837808 -0.25729 
1 0 0 
1 0 0 
-0.117007 -0.959623 -0.255799 
0.729344 -0.537166 -0.423686 
-0.747425 -0.657416 -0.0957075 
1 0 0 
1 0 0 
1 0 0 
1 0 0 
1 0 0 
-0.98919 -0.0276893 -0.144 
1 0 0 
-0.865994 -0.284607 -0.411161 
1 0 0 
1 0 0 
1 0 0 
1 0 0 
-0.834938 -0.469845 -0.286573 
0.904296 -0.407504 -0.12724 
1 0 0 
1 0 0 
-0.0572535 0.998296 0.0112768 
0.883532 -0.447103 -0.139536 
0.639245 -0.766086 -0.0669147 
1 0 0 
1 0 0 
1 0 0 
1 0 0 
1 0 0 
-0.951149 -0.174499 -0.254687 
1 0 0 
0.021278 -0.973803 -0.226397 
1 0 0 
1 0 0 
1 0 0 
1 0 0 
0.395248 -0.850976 -0.345859 
1 0 0 
1 0 0 
0.211546 -0.974962 -0.0685314 
1 0 0 
1 0 0 
1 0 0 
1 0 0 
1 0 0 
0.756059 -0.631217 -0.173032 
1 0 0 
0.976222 -0.214857 0.0287531 
1 0 0 
1 0 0 
1 0 0 
1 0 0 
0.830064 -0.135602 -0.540931 
1 0 0 
1 0 0 
0.96667 0.0176789 -0.255415 
1 0 0 
1 0 0 
1 0 0 
1 0 0 
1 0 0 
1 0 0 