# vtk DataFile Version 2.0
Generated by NetDEM
ASCII 
DATASET POLYDATA
POINTS 600 double
-0.418365 -0.406228 -0.463451 
-0.42614 -0.403933 -0.391901 
-0.413074 -0.00562251 -0.464972 
-0.412416 -0.0107054 -0.387082 
-0.449978 0.118206 -0.45003 
-0.379964 0.0832718 -0.387763 
-0.449978 0.118206 -0.45003 
-0.450007 0.176494 -0.368799 
-0.449044 0.347639 -0.450049 
-0.438923 0.27497 -0.382148 
-0.27114 -0.429479 -0.459104 
-0.328481 -0.412067 -0.397841 
-0.30837 -0.206761 -0.450008 
-0.225246 -0.181879 -0.400299 
-0.252791 0.368495 -0.463775 
-0.356738 0.372748 -0.405129 
-0.252791 0.368495 -0.463775 
-0.230378 0.324138 -0.393287 
-0.0545792 -0.398498 -0.461183 
0.042133 -0.439259 -0.444176 
-0.0545792 -0.398498 -0.461183 
-0.0855889 -0.388238 -0.394616 
-0.15041 -0.137981 -0.450017 
-0.157257 -0.0722411 -0.374983 
-0.15041 -0.137981 -0.450017 
-0.225246 -0.181879 -0.400299 
-0.0554962 -0.0863027 -0.450008 
0.0510088 -0.0922073 -0.44989 
0.0348142 0.178767 -0.45231 
0.0254545 0.260062 -0.449734 
0.0348142 0.178767 -0.45231 
-0.0569207 0.126465 -0.441787 
0.0348142 0.178767 -0.45231 
0.110344 0.136321 -0.399033 
-0.0305263 0.320772 -0.44094 
0.0254545 0.260062 -0.449734 
-0.0305263 0.320772 -0.44094 
-0.10856 0.315726 -0.395069 
0.193038 -0.400791 -0.462863 
0.205964 -0.412162 -0.389275 
0.169071 -0.209445 -0.462931 
0.165443 -0.204656 -0.389218 
0.172856 -0.00954655 -0.462811 
0.175476 0.00617682 -0.384114 
0.160161 0.209587 -0.465049 
0.118466 0.300994 -0.424136 
0.303972 0.404592 -0.41152 
0.207397 0.38578 -0.393696 
0.303972 0.404592 -0.41152 
0.37083 0.438672 -0.465046 
0.450004 -0.407314 -0.450034 
0.397403 -0.450012 -0.376514 
0.430937 -0.301289 -0.450041 
0.438284 -0.354656 -0.365833 
0.339121 -0.0100033 -0.450011 
0.273738 0.0668443 -0.443983 
0.339121 -0.0100033 -0.450011 
0.253055 -0.0576197 -0.431983 
0.381008 0.0915957 -0.450048 
0.450026 0.138054 -0.394638 
-0.42614 -0.403933 -0.391901 
-0.43472 -0.437872 -0.325866 
-0.42614 -0.403933 -0.391901 
-0.328481 -0.412067 -0.397841 
-0.412416 -0.0107054 -0.387082 
-0.450572 -0.0375968 -0.309554 
-0.412416 -0.0107054 -0.387082 
-0.326355 -0.00894654 -0.346538 
-0.450007 0.176494 -0.368799 
-0.445373 0.0996878 -0.304956 
-0.450007 0.176494 -0.368799 
-0.438923 0.27497 -0.382148 
-0.310258 0.155597 -0.462325 
-0.285655 0.116517 -0.388305 
-0.144541 0.402497 -0.446043 
-0.219673 0.442017 -0.399413 
-0.0855889 -0.388238 -0.394616 
-0.101094 -0.307685 -0.360628 
0.32049 -0.237479 -0.0877976 
0.309304 -0.161841 -0.156359 
0.32049 -0.237479 -0.0877976 
0.354145 -0.216206 0.00393036 
0.118466 0.300994 -0.424136 
0.0640734 0.395636 -0.407137 
0.205964 -0.412162 -0.389275 
0.207272 -0.433575 -0.316593 
0.205964 -0.412162 -0.389275 
0.260233 -0.321496 -0.346461 
0.165443 -0.204656 -0.389218 
0.210041 -0.199102 -0.303104 
0.165443 -0.204656 -0.389218 
0.161375 -0.304461 -0.373771 
0.195267 0.112282 -0.456547 
0.273738 0.0668443 -0.443983 
0.195267 0.112282 -0.456547 
0.110344 0.136321 -0.399033 
0.288354 0.37605 -0.316918 
0.249002 0.450023 -0.262311 
0.397403 -0.450012 -0.376514 
0.45 -0.448376 -0.291487 
0.397403 -0.450012 -0.376514 
0.348909 -0.411456 -0.298026 
0.438284 -0.354656 -0.365833 
0.450015 -0.312598 -0.275902 
0.450026 0.138054 -0.394638 
0.383315 0.167025 -0.326011 
0.450026 0.138054 -0.394638 
0.449929 0.0557414 -0.337911 
0.424968 0.339726 -0.456356 
0.429724 0.366647 -0.375994 
0.424968 0.339726 -0.456356 
0.330877 0.308102 -0.412528 
-0.43472 -0.437872 -0.325866 
-0.437083 -0.451879 -0.244249 
-0.326355 -0.00894654 -0.346538 
-0.325451 -0.0185529 -0.252709 
-0.326355 -0.00894654 -0.346538 
-0.252211 0.00296358 -0.331552 
-0.438923 0.27497 -0.382148 
-0.421926 0.260353 -0.28472 
-0.182305 -0.372465 -0.451985 
-0.160456 -0.446511 -0.390622 
0.209811 -0.327217 -0.203005 
0.253137 -0.299966 -0.275064 
-0.347447 0.334809 -0.330375 
-0.356738 0.372748 -0.405129 
-0.0360086 0.223511 -0.381782 
0.00642176 0.29327 -0.332473 
-0.0360086 0.223511 -0.381782 
-0.108215 0.275421 -0.30914 
0.255927 0.330661 -0.463774 
0.207397 0.38578 -0.393696 
0.207272 -0.433575 -0.316593 
0.264662 -0.438863 -0.234283 
0.207272 -0.433575 -0.316593 
0.0967437 -0.449337 -0.333034 
0.0510088 -0.0922073 -0.44989 
0.133631 -0.0979691 -0.396289 
0.273738 0.0668443 -0.443983 
0.323556 0.0642948 -0.372853 
0.110344 0.136321 -0.399033 
0.0511099 0.117221 -0.325241 
0.378699 -0.21582 -0.450032 
0.450016 -0.207299 -0.380481 
0.378699 -0.21582 -0.450032 
0.336438 -0.177257 -0.368022 
0.382191 -0.106926 -0.45004 
0.350902 -0.0777919 -0.359654 
0.382191 -0.106926 -0.45004 
0.450007 -0.104974 -0.376603 
0.450014 0.233465 -0.364558 
0.399172 0.298315 -0.307909 
0.450014 0.233465 -0.364558 
0.448823 0.219805 -0.265561 
0.450014 0.233465 -0.364558 
0.438286 0.25505 -0.459928 
-0.437083 -0.451879 -0.244249 
-0.393926 -0.440997 -0.1659 
-0.252211 0.00296358 -0.331552 
-0.192456 0.0817849 -0.314806 
-0.285655 0.116517 -0.388305 
-0.346135 0.146788 -0.314649 
-0.285655 0.116517 -0.388305 
-0.379964 0.0832718 -0.387763 
-0.285655 0.116517 -0.388305 
-0.230879 0.175811 -0.329296 
-0.160456 -0.446511 -0.390622 
-0.162841 -0.38403 -0.3254 
-0.0569207 0.126465 -0.441787 
-0.134287 0.142035 -0.386129 
-0.356738 0.372748 -0.405129 
-0.44999 0.379582 -0.354653 
-0.356738 0.372748 -0.405129 
-0.313944 0.436394 -0.341879 
0.0212503 0.047817 -0.450066 
0.031983 0.0423863 -0.353861 
0.0640734 0.395636 -0.407137 
-0.00230847 0.438868 -0.465016 
0.264662 -0.438863 -0.234283 
0.300019 -0.386458 -0.195992 
0.161375 -0.304461 -0.373771 
0.260233 -0.321496 -0.346461 
0.127797 0.0640952 -0.262515 
0.203738 0.143093 -0.251762 
0.260061 0.176534 -0.445806 
0.328993 0.209094 -0.398667 
0.260061 0.176534 -0.445806 
0.235793 0.231013 -0.377256 
0.155436 0.450018 -0.450008 
0.207397 0.38578 -0.393696 
0.357526 -0.314776 -0.322383 
0.260233 -0.321496 -0.346461 
0.357526 -0.314776 -0.322383 
0.393456 -0.224232 -0.299791 
0.450007 -0.104974 -0.376603 
0.438167 -0.0374905 -0.303787 
0.450007 -0.104974 -0.376603 
0.450004 -0.143183 -0.284208 
0.383315 0.167025 -0.326011 
0.328993 0.209094 -0.398667 
0.330877 0.308102 -0.412528 
0.328993 0.209094 -0.398667 
0.429724 0.366647 -0.375994 
0.399172 0.298315 -0.307909 
0.429724 0.366647 -0.375994 
0.43781 0.397253 -0.292774 
-0.393926 -0.440997 -0.1659 
-0.378932 -0.370991 -0.103724 
-0.325451 -0.0185529 -0.252709 
-0.370551 0.00876403 -0.178431 
-0.0888653 -0.169851 -0.176227 
-0.0942776 -0.243009 -0.244088 
0.031983 0.0423863 -0.353861 
0.0511099 0.117221 -0.325241 
0.260233 -0.321496 -0.346461 
0.253137 -0.299966 -0.275064 
0.0432789 0.0728617 -0.250873 
0.0511099 0.117221 -0.325241 
0.0432789 0.0728617 -0.250873 
0.00440794 0.113307 -0.18015 
0.235793 0.231013 -0.377256 
0.201886 0.311289 -0.334637 
0.235793 0.231013 -0.377256 
0.226315 0.184331 -0.316071 
0.348892 0.449889 -0.257702 
0.249002 0.450023 -0.262311 
0.348892 0.449889 -0.257702 
0.381029 0.427673 -0.181093 
0.450016 -0.207299 -0.380481 
0.393456 -0.224232 -0.299791 
-0.230879 0.175811 -0.329296 
-0.129109 0.189272 -0.311553 
-0.230879 0.175811 -0.329296 
-0.222347 0.208455 -0.235165 
-0.313944 0.436394 -0.341879 
-0.380485 0.450003 -0.268511 
-0.313944 0.436394 -0.341879 
-0.219673 0.442017 -0.399413 
-0.162841 -0.38403 -0.3254 
-0.216871 -0.365403 -0.219197 
-0.0942776 -0.243009 -0.244088 
-0.142283 -0.321367 -0.274341 
-0.134287 0.142035 -0.386129 
-0.192456 0.0817849 -0.314806 
-0.230378 0.324138 -0.393287 
-0.167848 0.353911 -0.319723 
-0.230378 0.324138 -0.393287 
-0.208205 0.274192 -0.32422 
-0.101094 -0.307685 -0.360628 
-0.0133524 -0.343516 -0.318255 
-0.101094 -0.307685 -0.360628 
-0.142283 -0.321367 -0.274341 
0.237037 -0.143203 -0.38248 
0.252046 -0.0758132 -0.329416 
0.237037 -0.143203 -0.38248 
0.336438 -0.177257 -0.368022 
0.237037 -0.143203 -0.38248 
0.133631 -0.0979691 -0.396289 
0.449929 0.0557414 -0.337911 
0.438167 -0.0374905 -0.303787 
0.449929 0.0557414 -0.337911 
0.444178 0.0797601 -0.24102 
0.43781 0.397253 -0.292774 
0.446385 0.373728 -0.201769 
-0.334093 0.359014 -0.0865461 
-0.406886 0.336609 -0.151257 
-0.108215 0.275421 -0.30914 
-0.167848 0.353911 -0.319723 
-0.108215 0.275421 -0.30914 
-0.129109 0.189272 -0.311553 
-0.0133524 -0.343516 -0.318255 
-0.0496526 -0.395718 -0.258265 
0.00642176 0.29327 -0.332473 
-0.0390838 0.26749 -0.229427 
0.263142 -0.122171 -0.236145 
0.336021 -0.0540843 -0.263658 
0.263142 -0.122171 -0.236145 
0.309304 -0.161841 -0.156359 
0.226315 0.184331 -0.316071 
0.153963 0.229505 -0.268923 
0.393456 -0.224232 -0.299791 
0.446509 -0.232988 -0.215488 
0.393456 -0.224232 -0.299791 
0.360766 -0.151214 -0.239809 
0.350902 -0.0777919 -0.359654 
0.336021 -0.0540843 -0.263658 
0.323556 0.0642948 -0.372853 
0.362809 0.0400579 -0.284137 
0.399172 0.298315 -0.307909 
0.315833 0.243142 -0.304668 
0.446385 0.373728 -0.201769 
0.410566 0.40946 -0.10801 
-0.327821 -0.439834 -0.0276608 
-0.242234 -0.441405 -0.0689737 
-0.327821 -0.439834 -0.0276608 
-0.343722 -0.415517 0.0654057 
-0.445373 0.0996878 -0.304956 
-0.425821 0.138956 -0.215104 
-0.421926 0.260353 -0.28472 
-0.354529 0.206397 -0.234296 
-0.158735 -0.302871 -0.167656 
-0.215894 -0.336154 -0.0798525 
-0.145302 0.375881 -0.0383268 
-0.104249 0.379697 -0.125981 
-0.145302 0.375881 -0.0383268 
-0.0937882 0.415334 0.0316108 
-0.129109 0.189272 -0.311553 
-0.0687294 0.135007 -0.238055 
-0.145326 0.442657 -0.327547 
-0.157835 0.434538 -0.20977 
-0.145326 0.442657 -0.327547 
-0.0685596 0.405815 -0.3099 
-0.0390838 0.26749 -0.229427 
-0.069109 0.31032 -0.166408 
0.309304 -0.161841 -0.156359 
0.360766 -0.151214 -0.239809 
0.203738 0.143093 -0.251762 
0.224078 0.196272 -0.16885 
0.249002 0.450023 -0.262311 
0.279103 0.449097 -0.166962 
0.450015 -0.312598 -0.275902 
0.421257 -0.385578 -0.213927 
0.450004 -0.143183 -0.284208 
0.360766 -0.151214 -0.239809 
0.362809 0.0400579 -0.284137 
0.336021 -0.0540843 -0.263658 
-0.242234 -0.441405 -0.0689737 
-0.236333 -0.427331 -0.157726 
-0.242234 -0.441405 -0.0689737 
-0.183625 -0.42983 0.0199873 
[...]
POINT_DATA 600
SCALARS id int 1
LOOKUP_TABLE default
0
25
2
27
3
103
3
28
4
54
5
30
6
31
9
84
9
134
10
60
10
35
11
81
11
31
12
66
13
38
13
83
13
69
14
38
14
139
15
40
16
41
17
42
18
39
19
144
19
24
20
45
21
46
22
68
22
147
23
48
25
50
25
30
27
127
27
52
28
178
28
54
33
78
34
159
35
135
36
192
36
111
39
89
40
65
40
116
41
216
41
91
43
68
43
69
44
194
45
145
45
120
46
195
48
97
48
148
49
99
49
98
50
75
52
102
52
77
54
179
55
80
56
241
59
84
63
164
63
158
64
144
65
90
65
85
66
166
68
172
69
138
71
121
71
146
72
171
72
96
73
173
73
273
73
74
75
100
77
203
78
79
78
103
78
128
80
130
83
133
84
104
84
129
88
113
89
114
90
115
91
116
92
193
93
123
93
118
94
144
95
116
95
170
96
222
96
196
97
123
98
123
99
173
99
149
100
101
102
177
106
131
113
138
116
241
117
138
117
238
118
143
118
168
119
194
119
199
121
170
128
183
128
253
129
204
129
159
130
205
131
155
133
203
134
209
134
153
135
160
135
155
141
322
141
146
141
166
148
222
148
272
149
174
157
328
158
209
158
183
160
210
164
188
167
297
167
192
168
218
170
221
170
271
171
297
172
197
173
198
174
224
175
200
175
275
178
303
179
279
181
225
182
333
182
334
183
213
184
259
184
263
188
288
192
271
193
268
194
319
195
220
196
271
197
297
200
255
200
305
202
279
202
258
203
208
204
254
205
255
206
281
209
234
210
235
220
270
220
245
221
296
223
348
224
249
227
304
233
253
234
258
234
259
235
260
239
264
245
345
246
296
246
371
248
348
248
373
249
274
254
304
259
333
260
285
262
344
265
345
270
295
273
348
274
299
274
324
278
301
278
303
279
303
284
309
285
310
285
340
288
333
289
313
289
314
289
333
301
377
308
313
309
358
310
335
314
339
323
398
324
424
330
335
339
364
342
368
358
359
395
445
399
424
405
436
421
443
28
0
278
0
48
1
174
1
73
1
345
1
20
1
196
1
121
1
96
1
195
1
248
1
145
1
149
1
245
2
75
2
45
2
80
2
200
2
125
2
175
2
320
2
169
3
274
3
304
3
94
3
204
3
239
3
194
3
389
3
53
4
17
4
6
4
49
4
55
4
58
4
11
4
0
4
74
4
88
4
22
4
10
4
64
4
114
4
4
4
16
4
24
4
2
4
20
4
72
4
109
4
12
4
8
4
5
4
15
4
38
4
66
4
18
4
71
4
9
4
122
4
21
4
23
4
94
4
33
4
83
4
29
4
14
4
1
4
3
4
13
4
93
4
43
4
47
4
34
4
7
4
CELL_DATA 300
VECTORS force double
-0.713028 13.9544 -86.9752 
-19.6787 11.2281 -91.8121 
0.504044 -1.9383 -4.00249 
-3.30664 -5.92082 -47.4008 
36.2215 119.74 171.214 
9.88147 5.98333 -38.6464 
-0.614172 -0.403063 -3.56798 
15.7571 -46.0563 -199.453 
4.95734 3.45617 -19.9626 
-17.6781 10.7607 -9.99572 
15.9814 -30.5194 -98.0197 
0.646036 -4.95856 -12.36 
2.89465 1.58593 -6.25579 
-4.47394 -0.252269 -2.73823 
124.323 173.89 -211.931 
339.54 30.2057 -642.741 
291.522 -63.2755 -947.048 
29.2521 -9.78692 4.35357 
10.7654 -4.08943 -5.09285 
3.46671 -2.61202 -61.2043 
-5.19328 14.4462 -45.5135 
4.32013 -1.66613 -8.78963 
5.54752 -10.554 -8.42759 
-209.587 203.757 -265.396 
35.7934 5.28916 -9.95731 
15.4759 36.2612 -20.21 
2.09673 78.6604 108.374 
28.9079 -16.7287 -6.03187 
3.04241 -1.07434 -7.34249 
-38.6253 -18.5098 -62.5256 
-2.58388 14.8673 -57.911 
-9.64001 5.54216 -29.495 
8.56801 1.1937 -19.8084 
-34.2459 -2.73817 -51.8246 
-7.10155 13.3864 -39.2996 
-11.8674 -20.6099 -29.527 
-3.99167 0.888262 -37.5032 
111.463 -13.0209 -61.2952 
9.90672 -29.4678 -93.3663 
1.75058 -8.85471 17.1229 
-3.71591 0.335237 -12.9515 
5.79456 -9.64908 1.23446 
-2.05258 -0.0584566 -29.6584 
-2.72993 -10.0016 -18.0885 
-2.52557 1.52229 -11.0747 
-4.25344 10.9089 -19.8604 
39.3428 -6.62448 -354.986 
482.705 -84.6961 -203.722 
18.3576 -414.179 -280.336 
-3.86285 -1.33662 -16.1449 
7.79818 -3.65818 -12.9487 
61.3132 122.305 -369.521 
-7.08977 -45.287 -60.2226 
5.12887 28.1804 -33.471 
-23.4635 -18.956 -97.2246 
14.8765 20.1758 -64.5207 
1.67045 3.29151 -42.5612 
-0.926391 -0.662137 -24.5132 
-44.9612 -21.1334 -13.1741 
-26.9124 97.1901 -106.724 
-4.05468 17.2797 114.435 
-1.19806 -0.643726 9.63939 
235.355 -15.1605 35.5505 
-5.80757 -2.27662 -12.9141 
-6.43944 26.2627 4.28973 
-251.982 191.758 -272.594 
-5.9522 -0.161835 -14.0237 
-0.0518544 -0.225502 -2.81174 
-10.4153 1.65917 -12.6467 
16.0694 -29.5004 51.0797 
25.8437 -150.306 621.692 
-15.1141 -0.725701 -36.7071 
3.92322 -3.67355 -11.8412 
4.58178 -4.76409 -24.9684 
-17.2182 -1.53857 -44.3589 
-18.1717 -15.3665 8.06953 
99.5253 68.6092 -173.135 
-1.23874 9.22436 56.614 
-2.1327 -4.28236 -23.6204 
-27.5478 -19.8989 5.19325 
2.39891 0.945175 -6.76445 
2.74827 1.927 -2.48006 
-11.1679 -6.18421 -14.7769 
40.1313 24.406 -307.828 
-210.183 -95.6938 111.837 
-60.5335 -145.821 -316.498 
-540.716 25.5759 47.2863 
-104.843 -136.521 -206.232 
6.77778 -9.91401 13.551 
-3.03125 -1.76182 -4.36509 
-8.41916 3.79804 -11.1993 
-1.31131 -0.385893 2.24056 
199.491 -64.0226 607.04 
221.128 -13.4244 1028.24 
-369.721 216.427 7.01113 
8.41749 4.31491 1.74043 
-7.97172 -4.34674 -2.48357 
2.64549 -40.8146 -17.3562 
-4.79624 23.9969 -28.2555 
165.457 102.362 211.672 
14.4206 3.94842 89.077 
11.4573 18.1711 -9.28969 
-15.7884 -23.7848 -56.2958 
-0.987097 -5.01547 -7.84707 
-0.433905 -0.718426 -14.147 
28.9151 66.5671 45.2576 
99.0678 10.3659 419.262 
-3.90868 -6.43031 -22.5743 
7.35189 44.1232 448.514 
20.1186 -27.8981 144.075 
-47.8912 -512.038 -368.267 
23.5585 -218.452 -866.488 
297.4 -794.475 -326.887 
-2.46706 -111.419 -44.0458 
15.0422 1.25396 -34.4461 
-5.85377 -2.32811 0.255196 
-1.61916 -4.03933 -7.63913 
101.301 -184.325 -262.674 
274.836 51.2171 133.878 
95.0097 28.2986 62.4267 
44.118 98.5568 83.2213 
137.206 30.5702 -53.7552 
-10.4623 71.3418 -100.498 
12.8901 27.7924 -9.2804 
-7.66825 12.9021 -53.058 
-2.72137 -53.9498 -77.4062 
-0.21712 -0.393213 -0.700349 
-5.49688 2.8306 -0.400699 
8.01273 -2.83734 2.51541 
2.28462 56.2293 -4.5058 
0.0178332 -8.7477 -0.87418 
17.7446 -0.166396 -31.3572 
-53.8956 -18.0671 -57.8612 
-35.1191 -173.076 -76.8523 
30.9324 -38.2646 -19.1745 
-7.13908 23.4585 -69.7741 
6.47318 -0.346392 -20.5938 
-0.44473 -7.37976 7.04927 
-7.37973 15.1599 -4.44805 
6.58621 -101.8 293.424 
-6.30293 3.1483 -20.6376 
11.1468 -7.90923 -18.5481 
4.45834 -3.10016 -13.0866 
-7.25518 3.70179 -11.5718 
-7.1542 2.49287 1.73196 
19.5427 -1.34986 -54.445 
-10.5958 -10.3414 19.6027 
0.874891 1.70875 -1.03211 
-1.35149 6.68374 -28.693 
-16.9904 10.4212 -12.6049 
-0.461126 -0.307913 0.894294 
13.942 -3.93589 64.768 
-6.46563 -4.09549 -26.694 
-2.37346 17.411 -6.28272 
3.16937 106.505 -51.6383 
-4.13042 14.6443 8.07381 
7.03691 -2.14906 -12.9172 
-16.6104 5.91212 18.5152 
0.99682 0.747358 -0.729609 
-383.546 667.171 197.586 
-181.26 97.3794 299.64 
4.21878 3.22332 -8.77783 
1.39846 3.74703 0.184947 
-4.67847 -8.24212 26.4565 
0.199329 4.93674 -19.1711 
20.3704 -7.08736 22.0447 
-2.32095 -3.46472 -2.78355 
-26.8029 -6.81678 -9.37526 
-59.1758 -57.2604 67.8451 
29.1215 29.217 -104.225 
0.407064 15.5693 -26.4658 
48.5779 216.178 50.9445 
9.52179 17.0718 -84.3681 
130.634 37.3506 -240.735 
38.0026 119.242 -43.2597 
-3.14865 -23.96 -74.9483 
-66.5485 -11.1361 -42.4487 
11.6595 -6.12989 -44.6437 
-2.11493 -0.681442 3.2245 
0.825921 -0.260613 2.90522 
13.7047 32.2241 -11.9148 
-48.1879 -88.4882 -248.408 
-9.76432 11.8999 -63.8845 
2.77974 4.53407 -7.80719 
-13.9218 -33.9692 -8.78402 
-0.754539 -41.0627 163.631 
-0.631525 34.5246 -86.6963 
65.7667 -92.392 234.418 
90.9568 76.2256 -259.004 
-0.00740506 -8.16474 -30.6106 
9.77142 -2.97924 -67.9562 
-68.7885 115.679 59.5171 
-14.0628 2.4871 -41.6338 
-3.59528 -0.381341 2.19313 
-9.09763 -3.33607 5.35039 
-45.981 38.563 39.052 
55.6446 128.495 -226.551 
2.13091 0.355992 -13.7873 
2.06589 0.318439 -17.845 
-2.18331 10.0957 -13.3737 
-10.794 -13.1286 30.0487 
0.190259 12.3651 -19.976 
1.18824 1.26947 -1.93353 
-0.484257 1.38738 -21.7584 
-5.76837 -1.85538 -3.09458 
2.25533 52.0107 -26.1916 
-31.4208 25.4241 -18.8791 
-7.16527 12.51 -27.311 
73.6793 27.2753 69.1917 
-6.38656 5.85811 -17.4891 
-13.8782 2.31056 2.92436 
3.63909 1.44326 6.23457 
1.39007 2.63321 -7.40155 
-1.75576 -0.84412 -21.5417 
0.865359 -0.134008 3.86055 
0.926165 4.27651 -4.66297 
-0.506389 -0.664657 1.02163 
-2.59256 -1.12201 -8.0104 
0.693735 1.34134 -1.06177 
5.69657 2.11963 6.41988 
6.57133 -21.2121 30.4125 
0.00489314 -0.544762 0.740048 
-2.03602 0.510162 -0.949016 
-168.165 -1745.02 -709.289 
9.26079 -4.5022 3.19102 
11.6277 4.7488 -7.02165 
-58.5925 -27.0269 19.8042 
-0.0928073 -1.09618 35.6665 
-53.4735 -33.0074 78.716 
-10.211 -0.725961 4.05942 
-7.52275 11.8862 15.0335 
-7.70751 8.49404 -8.46911 
-28.6735 -2.28517 9.15016 
-14.2762 4.37261 13.0077 
-128.311 -88.3303 189.248 
-232.484 -48.5293 182.089 
-6.74587 -1.80498 44.4579 
-36.8471 -14.451 -19.6435 
1.27815 30.4652 -0.20926 
5.18124 6.19708 1.01903 
10.8052 26.26 -0.505744 
-8.98951 119.269 33.7354 
6.54622 30.9513 -13.7723 
-1.26973 -3.41491 2.29412 
1.56908 -1.88304 2.60772 
-0.0203795 -2.22704 2.47723 
-0.0082997 1.61029 4.03026 
-2.87791 -8.72609 16.7649 
0.695251 1.28735 11.1222 
-94.2825 60.0847 -30.9158 
-95.6127 41.5717 163.951 
-1.92032 -10.0457 14.0175 
-567.846 529.238 -32.9147 
-11.8513 56.2314 -24.2329 
-2.84021e-17 -9.65043e-15 13.6117 
-5.17271 8.33746 19.9951 
1.09367 0.328798 15.3891 
4.49112 6.17086 70.5047 
15.144 -63.6903 230.8 
-0.886762 0.900024 13.5042 
-3.64546 2.78849 33.7176 
-5.45895 -11.2825 100.954 
-18.1716 2.38871 67.9192 
-13.7312 6.2692 -16.9456 
-3.17931 1.69474 21.7385 
9.48574 18.5407 92.1587 
-18.6149 -22.684 -73.4231 
7.10967 -12.2143 25.7499 
154.595 67.8211 341.255 
5.85626 -14.5741 58.7019 
-17.9434 -7.85841 30.2026 
10.6193 -15.8612 106.335 
-10.2465 -0.287133 87.3193 
13.0549 3.92305 82.7481 
1.02097 -1.3605 13.4453 
2.73705 0.0491089 15.9339 
-0.454211 1.05576 13.7436 
-8.56046 -7.57334 59.3237 
-3.63632 -1.63544 74.4608 
-9.19294 -128.064 98.918 
5.17421 -0.341954 24.0875 
-5.85175 11.7365 25.0818 
13.0472 4.17225 61.5273 
19.7939 -6.43575 69.1979 
4.96449e-14 -2.06856e-14 13.6117 
6.87122 -58.132 141.687 
31.5531 21.7006 92.0742 
-53.0258 38.1787 5.09938 
1.94531 -1.27002 48.6321 
33.7457 104.712 213.394 
1.54454e-15 4.63869e-15 13.6117 
-0.444559 0.979723 11.5473 
-3.50771e-16 3.59353e-16 13.6117 
1.01042 15.3927 64.7089 
0.948094 374.639 -734.699 
111.279 351.722 812.076 
23.5347 -83.281 -226.269 
9.63277e-15 2.80487e-14 13.6117 
-15.9545 -14.6763 36.5282 
-5.12606e-13 -2.60853e-12 13.6117 
VECTORS moment double
0 0 0 
0 0 0 
0 0 0 
0 0 0 
0 0 0 
0 0 0 
0 0 0 
0 0 0 
0 0 0 
0 0 0 
0 0 0 
0 0 0 
0 0 0 
0 0 0 
0 0 0 
0 0 0 
0 0 0 
0 0 0 
0 0 0 
0 0 0 
0 0 0 
0 0 0 
0 0 0 
0 0 0 
0 0 0 
0 0 0 
0 0 0 
0 0 0 
0 0 0 
0 0 0 
0 0 0 
0 0 0 
0 0 0 
0 0 0 
0 0 0 
0 0 0 
0 0 0 
0 0 0 
0 0 0 
0 0 0 
0 0 0 
0 0 0 
0 0 0 
0 0 0 
0 0 0 
0 0 0 
0 0 0 
0 0 0 
0 0 0 
0 0 0 
0 0 0 
0 0 0 
0 0 0 
0 0 0 
0 0 0 
0 0 0 
0 0 0 
0 0 0 
0 0 0 
0 0 0 
0 0 0 
0 0 0 
0 0 0 
0 0 0 
0 0 0 
0 0 0 
0 0 0 
0 0 0 
0 0 0 
0 0 0 
0 0 0 
0 0 0 
0 0 0 
0 0 0 
0 0 0 
0 0 0 
0 0 0 
0 0 0 
0 0 0 
0 0 0 
0 0 0 
0 0 0 
0 0 0 
0 0 0 
0 0 0 
0 0 0 
0 0 0 
0 0 0 
0 0 0 
0 0 0 
0 0 0 
0 0 0 
0 0 0 
0 0 0 
0 0 0 
0 0 0 
0 0 0 
0 0 0 
0 0 0 
0 0 0 
0 0 0 
0 0 0 
0 0 0 
0 0 0 
0 0 0 
0 0 0 
0 0 0 
0 0 0 
0 0 0 
0 0 0 
0 0 0 
0 0 0 
0 0 0 
0 0 0 
0 0 0 
0 0 0 
0 0 0 
0 0 0 
0 0 0 
0 0 0 
0 0 0 
0 0 0 
0 0 0 
0 0 0 
0 0 0 
0 0 0 
0 0 0 
0 0 0 
0 0 0 
0 0 0 
0 0 0 
0 0 0 
0 0 0 
0 0 0 
0 0 0 
0 0 0 
0 0 0 
0 0 0 
0 0 0 
0 0 0 
0 0 0 
0 0 0 
0 0 0 
0 0 0 
0 0 0 
0 0 0 
0 0 0 
0 0 0 
0 0 0 
0 0 0 
0 0 0 
0 0 0 
0 0 0 
0 0 0 
0 0 0 
0 0 0 
0 0 0 
0 0 0 
0 0 0 
0 0 0 
0 0 0 
0 0 0 
0 0 0 
0 0 0 
0 0 0 
0 0 0 
0 0 0 
0 0 0 
0 0 0 
0 0 0 
0 0 0 
0 0 0 
0 0 0 
0 0 0 
0 0 0 
0 0 0 
0 0 0 
0 0 0 
0 0 0 
0 0 0 
0 0 0 
0 0 0 
0 0 0 
0 0 0 
0 0 0 
0 0 0 
0 0 0 
0 0 0 
0 0 0 
0 0 0 
0 0 0 
0 0 0 
0 0 0 
0 0 0 
0 0 0 
0 0 0 
0 0 0 
0 0 0 
0 0 0 
0 0 0 
0 0 0 
0 0 0 
0 0 0 
0 0 0 
0 0 0 
0 0 0 
0 0 0 
0 0 0 
0 0 0 
0 0 0 
0 0 0 
0 0 0 
0 0 0 
0 0 0 
0 0 0 
0 0 0 
0 0 0 
0 0 0 
0 0 0 
0 0 0 
0 0 0 
0 0 0 
0 0 0 
0 0 0 
0 0 0 
0 0 0 
0 0 0 
0 0 0 
0 0 0 
0 0 0 
0 0 0 
0 0 0 
0 0 0 
0 0 0 
0 0 0 
0 0 0 
0 0 0 
0 0 0 
0 0 0 
0 0 0 
0 0 0 
0 0 0 
0 0 0 
0 0 0 
0 0 0 
0 0 0 
0 0 0 
0 0 0 
0 0 0 
0 0 0 
0 0 0 
0 0 0 
0 0 0 
0 0 0 
0 0 0 
0 0 0 
0 0 0 
0 0 0 
0 0 0 
0 0 0 
0 0 0 
0 0 0 
0 0 0 
0 0 0 
0 0 0 
0 0 0 
0 0 0 
0 0 0 
0 0 0 
0 0 0 
0 0 0 
0 0 0 
0 0 0 
0 0 0 
0 0 0 
0 0 0 
0 0 0 
0 0 0 
0 0 0 
0 0 0 
0 0 0 
0 0 0 
0 0 0 
0 0 0 
0 0 0 
0 0 0 
0 0 0 
0 0 0 
0 0 0 
0 0 0 
0 0 0 
0 0 0 
0 0 0 
0 0 0 
0 0 0 
0 0 0 
0 0 0 
0 0 0 
0 0 0 
0 0 0 
SCALARS num_collisions int 1
LOOKUP_TABLE default
1 
1 
1 
1 
1 
1 
1 
1 
1 
1 
1 
1 
1 
1 
1 
1 
1 
1 
1 
1 
1 
1 
1 
1 
1 
1 
1 
1 
1 
1 
1 
1 
1 
1 
1 
1 
1 
1 
1 
1 
1 
1 
1 
1 
1 
1 
1 
1 
1 
1 
1 
1 
1 
1 
1 
1 
1 
1 
1 
1 
1 
1 
1 
1 
1 
1 
1 
1 
1 
1 
1 
1 
1 
1 
1 
1 
1 
1 
1 
1 
1 
1 
1 
1 
1 
1 
1 
1 
1 
1 
1 
1 
1 
1 
1 
1 
1 
1 
1 
1 
1 
1 
1 
1 
1 
1 
1 
1 
1 
1 
1 
1 
1 
1 
1 
1 
1 
1 
1 
1 
1 
1 
1 
1 
1 
1 
1 
1 
1 
1 
1 
1 
1 
1 
1 
1 
1 
1 
1 
1 
1 
1 
1 
1 
1 
1 
1 
1 
1 
1 
1 
1 
1 
1 
1 
1 
1 
1 
1 
1 
1 
1 
1 
1 
1 
1 
1 
1 
1 
1 
1 
1 
1 
1 
1 
1 
1 
1 
1 
1 
1 
1 
1 
1 
1 
1 
1 
1 
1 
1 
1 
1 
1 
1 
1 
1 
1 
1 
1 
1 
1 
1 
1 
1 
1 
1 
1 
1 
1 
1 
1 
1 
1 
1 
1 
1 
1 
1 
1 
1 
1 
1 
1 
1 
1 
1 
1 
1 
1 
1 
1 
1 
1 
1 
1 
1 
1 
1 
1 
1 
1 
1 
1 
1 
1 
1 
1 
1 
1 
1 
1 
1 
1 
1 
1 
1 
1 
1 
1 
1 
1 
1 
1 
1 
1 
1 
1 
1 
1 
1 
1 
1 
1 
1 
1 
1 
1 
1 
1 
1 
1 
1 
1 
1 
1 
1 
1 
1 
1 
1 
1 
1 
1 
1 
1 
1 
1 
1 
1 
1 
VECTORS pos double
-0.409169 -0.411341 -0.426046 
-0.39484 -0.0127629 -0.423058 
-0.414971 0.100741 -0.418895 
-0.449992 0.14735 -0.409414 
-0.443983 0.311304 -0.416098 
-0.289519 -0.41948 -0.428493 
-0.266808 -0.194326 -0.425154 
-0.3016 0.361998 -0.42986 
-0.224121 0.3357 -0.444428 
-0.00296521 -0.409071 -0.46398 
-0.0906165 -0.379514 -0.443492 
-0.153847 -0.105113 -0.412501 
-0.187829 -0.159934 -0.425158 
-0.00566359 -0.0863762 -0.44593 
0.0443962 0.227502 -0.459714 
-0.0169215 0.151734 -0.427291 
0.0710239 0.155556 -0.42319 
-0.00459024 0.286745 -0.424964 
-0.0699884 0.309602 -0.425243 
0.216366 -0.413527 -0.424042 
0.163266 -0.219053 -0.428581 
0.195904 0.00784056 -0.424029 
0.142117 0.251715 -0.445833 
0.255685 0.395186 -0.402608 
0.333563 0.418112 -0.449482 
0.423704 -0.428663 -0.413274 
0.43461 -0.327973 -0.407937 
0.31475 0.0336548 -0.450016 
0.296088 -0.0338111 -0.440996 
0.415517 0.114822 -0.422343 
-0.419128 -0.437889 -0.361283 
-0.365188 -0.399637 -0.393029 
-0.430795 -0.0432898 -0.3579 
-0.353153 -0.0128968 -0.374564 
-0.447691 0.138092 -0.336875 
-0.444465 0.225731 -0.375472 
-0.298345 0.131687 -0.434218 
-0.186817 0.417698 -0.402507 
-0.0932981 -0.350986 -0.368308 
0.315749 -0.208371 -0.128162 
0.337316 -0.22684 -0.0419203 
0.0824772 0.346244 -0.402715 
0.204435 -0.429327 -0.35604 
0.239158 -0.368359 -0.365346 
0.178607 -0.188641 -0.342136 
0.163259 -0.268125 -0.409204 
0.23477 0.102633 -0.441269 
0.148854 0.126346 -0.429321 
0.268681 0.413032 -0.289614 
0.423702 -0.449194 -0.334 
0.373157 -0.430734 -0.33727 
0.44415 -0.333627 -0.320869 
0.416669 0.152539 -0.360326 
0.449978 0.0968977 -0.366274 
0.439216 0.356779 -0.411436 
0.373525 0.317653 -0.436802 
-0.41612 -0.448415 -0.277014 
-0.346263 -0.00628657 -0.290491 
-0.290381 0.00646124 -0.33985 
-0.430424 0.267661 -0.333434 
-0.176549 -0.406099 -0.408913 
0.237151 -0.315332 -0.243139 
-0.345672 0.343112 -0.367056 
-0.0113195 0.25479 -0.362835 
-0.0890767 0.239255 -0.351507 
0.227284 0.363872 -0.433995 
0.243327 -0.432637 -0.266843 
0.151804 -0.421957 -0.333826 
0.0968436 -0.0903131 -0.434183 
0.292492 0.0610133 -0.411887 
0.083166 0.128034 -0.357903 
0.414358 -0.211559 -0.415256 
0.357569 -0.196538 -0.409027 
0.366547 -0.0923589 -0.404846 
0.416099 -0.10595 -0.413321 
0.424593 0.265889 -0.336232 
0.449419 0.226633 -0.315056 
0.445146 0.239348 -0.413959 
-0.394327 -0.451565 -0.201535 
-0.224685 0.0454769 -0.326676 
-0.315895 0.131657 -0.351473 
-0.33281 0.0999003 -0.388032 
-0.258268 0.146169 -0.358796 
-0.166632 -0.394785 -0.365081 
-0.0828545 0.133257 -0.415549 
-0.422183 0.377188 -0.396139 
-0.327688 0.408779 -0.381222 
0.0336109 0.0488669 -0.411205 
0.0408715 0.422491 -0.445072 
0.278069 -0.404961 -0.216944 
0.208013 -0.298473 -0.356705 
0.159404 0.111337 -0.251599 
0.299128 0.183151 -0.429232 
0.229133 0.197995 -0.402806 
0.181418 0.4179 -0.421853 
0.307549 -0.316111 -0.3219 
0.375492 -0.269503 -0.311087 
0.444087 -0.0712313 -0.340194 
0.450005 -0.124077 -0.330405 
0.356153 0.188059 -0.362337 
0.329936 0.258598 -0.405595 
0.408843 0.330015 -0.34534 
0.450862 0.378201 -0.339281 
-0.383698 -0.400671 -0.143672 
-0.352249 -0.00971032 -0.22337 
-0.091578 -0.206458 -0.210088 
0.0406211 0.0752818 -0.33345 
0.237585 -0.315222 -0.314673 
0.0364951 0.0956592 -0.286564 
0.0214102 0.0990057 -0.212508 
0.229446 0.270741 -0.34357 
0.225931 0.19586 -0.350528 
0.298948 0.44995 -0.260007 
0.366745 0.435977 -0.21312 
0.421737 -0.215765 -0.340136 
-0.18247 0.18742 -0.324636 
-0.226613 0.19213 -0.282222 
-0.347214 0.443198 -0.305195 
-0.271414 0.43699 -0.368132 
-0.190309 -0.374705 -0.279073 
-0.125685 -0.278878 -0.259017 
-0.165674 0.113849 -0.342237 
-0.194495 0.354906 -0.363981 
-0.228686 0.299311 -0.36229 
-0.0549054 -0.335661 -0.334604 
-0.119807 -0.323482 -0.320319 
0.248484 -0.112569 -0.363122 
0.291559 -0.155519 -0.364401 
0.185181 -0.114217 -0.391581 
0.444048 0.00912683 -0.320847 
0.44705 0.0677489 -0.289463 
0.445157 0.398751 -0.246616 
-0.370494 0.347803 -0.118854 
-0.128229 0.316694 -0.292969 
-0.103317 0.230931 -0.322347 
-0.0226799 -0.354914 -0.275108 
-0.0140197 0.279464 -0.274988 
0.294203 -0.0800026 -0.254752 
0.29105 -0.114111 -0.208766 
0.192036 0.209112 -0.279966 
0.419984 -0.22861 -0.257638 
0.377112 -0.187723 -0.269798 
0.343463 -0.0659384 -0.311655 
0.343182 0.0521763 -0.328495 
0.357503 0.270728 -0.306287 
0.447448 0.388654 -0.151455 
-0.298828 -0.419979 -0.0652801 
-0.348054 -0.428576 0.0159278 
-0.435598 0.119321 -0.260025 
-0.388229 0.233374 -0.259506 
-0.198497 -0.304326 -0.137357 
-0.118698 0.381457 -0.0802749 
-0.121608 0.413 -0.0146627 
-0.0961501 0.168236 -0.26683 
-0.163078 0.441298 -0.272746 
-0.0971046 0.4432 -0.313463 
-0.0528905 0.291823 -0.206354 
0.332926 -0.155309 -0.198482 
0.220087 0.156354 -0.204163 
0.264054 0.449553 -0.214637 
0.435637 -0.349088 -0.244914 
0.405385 -0.147198 -0.262007 
0.349415 -0.00701342 -0.273897 
-0.232383 -0.417309 -0.112842 
-0.203979 -0.439583 -0.0238393 
-0.329073 0.219491 -0.193306 
-0.279022 0.257338 -0.16366 
-0.182548 0.104073 -0.271148 
-0.4006 0.449816 -0.222747 
-0.221934 -0.391448 -0.175939 
-0.060438 -0.302856 -0.11329 
-0.16555 0.351058 -0.266803 
-0.0363894 -0.379387 -0.216982 
0.397543 -0.343658 -0.200524 
0.394524 -0.417804 -0.186595 
0.448254 -0.199736 -0.178199 
0.342463 0.153896 -0.241554 
0.420575 0.390328 -0.0724111 
-0.443647 0.413033 -0.0482985 
-0.203446 0.204731 -0.189015 
-0.200862 0.322743 -0.171027 
-0.153739 0.38017 -0.20987 
-0.0307163 -0.385783 -0.149053 
-0.00799876 0.46099 -0.244642 
0.408899 -0.438311 -0.133335 
0.449179 -0.182031 -0.0934364 
0.449093 -0.214719 0.000975429 
0.414395 0.161134 -0.179387 
0.441128 0.136426 -0.0991605 
0.408738 0.410297 0.019319 
-0.435319 0.449819 -0.12917 
-0.1369 0.399389 -0.165784 
-0.0203543 -0.409033 -0.0535994 
0.132182 0.443337 -0.170436 
0.403547 -0.410861 -0.0977114 
0.390456 -0.295142 -0.140436 
0.413775 0.196057 -0.239023 
0.362923 0.42137 0.0388886 
0.451295 0.461052 0.0715954 
-0.429752 0.0529147 -0.108184 
-0.437917 0.116159 -0.172282 
-0.390177 0.172674 -0.224695 
-0.208018 0.422508 -0.0580562 
-0.0127494 -0.400196 0.0066407 
0.0563668 -0.397182 0.0096729 
-0.0819398 0.345546 -0.153423 
-0.0309211 0.334337 -0.0898711 
0.00460342 0.412035 -0.104341 
-0.0434143 0.37995 -0.126722 
-0.409734 0.00353312 -0.0377095 
-0.0825424 0.297332 0.00454816 
-0.21224 0.38912 0.0387423 
-0.0362862 -0.395436 0.0813323 
-0.00560964 0.407651 -0.0347716 
0.376836 0.234662 -0.101435 
0.428711 0.430947 0.179484 
-0.0753829 -0.457683 0.186544 
0.00151653 0.412714 0.0761246 
0.149538 0.171246 -0.000810398 
-0.17654 0.386465 0.0955428 
0.390287 -0.3699 0.254938 
0.425023 0.330301 0.262258 
-0.0338361 -0.20454 0.313424 
0.214298 0.130444 0.450013 
-0.5 0.176494 -0.368798 