# vtk DataFile Version 2.0
Generated by NetDEM
ASCII 
DATASET POLYDATA
POINTS 242 double
-0.416947 -0.405395 -0.462867 
-0.404133 -0.399713 -0.388566 
-0.403333 -0.203333 -0.450039 
-0.403333 -0.203333 -0.350071 
-0.412822 -0.00758129 -0.464654 
-0.417703 -0.0101722 -0.39167 
-0.40295 0.19705 -0.450039 
-0.40295 0.19705 -0.35007 
-0.402763 0.397237 -0.450038 
-0.402763 0.397237 -0.35007 
-0.257171 -0.434523 -0.460257 
-0.275776 -0.399858 -0.375263 
-0.203538 -0.203538 -0.450039 
-0.203538 -0.203538 -0.350071 
-0.203218 -0.00321788 -0.450039 
-0.203218 -0.00321788 -0.350071 
-0.174701 0.191894 -0.461744 
-0.245729 0.17882 -0.405102 
-0.0249149 -0.410974 -0.452193 
-0.00889384 -0.398436 -0.366471 
-0.00366947 -0.203669 -0.450039 
-0.00366947 -0.203669 -0.350071 
-0.00360232 -0.00360232 -0.450039 
-0.00360232 -0.00360232 -0.350071 
-0.0378803 0.39402 -0.464883 
-0.00498154 0.37984 -0.377484 
0.174481 -0.212311 -0.464805 
0.1949 -0.208913 -0.391898 
0.172802 -0.00993522 -0.462528 
0.185182 -0.0159786 -0.384305 
0.196913 0.396913 -0.450038 
0.196913 0.396913 -0.35007 
0.396713 -0.403287 -0.450039 
0.396713 -0.403287 -0.350071 
0.39661 -0.20339 -0.450038 
0.39661 -0.20339 -0.350069 
0.396488 -0.00351175 -0.450039 
0.396488 -0.00351175 -0.350071 
0.396508 0.196508 -0.450038 
0.396508 0.196508 -0.350069 
-0.404133 -0.399713 -0.388566 
-0.403969 -0.403644 -0.315894 
-0.403333 -0.203333 -0.350071 
-0.403333 -0.203333 -0.250096 
-0.417703 -0.0101722 -0.39167 
-0.403777 -0.00352822 -0.310853 
-0.40295 0.19705 -0.35007 
-0.40295 0.19705 -0.250096 
-0.402763 0.397237 -0.35007 
-0.402763 0.397237 -0.250095 
-0.275776 -0.399858 -0.375263 
-0.192715 -0.402317 -0.32318 
-0.203538 -0.203538 -0.350071 
-0.203538 -0.203538 -0.250097 
-0.203218 -0.00321788 -0.350071 
-0.203218 -0.00321788 -0.250096 
-0.245729 0.17882 -0.405102 
-0.210675 0.198884 -0.320248 
-0.00889384 -0.398436 -0.366471 
0.00303555 -0.406723 -0.275246 
-0.00366947 -0.203669 -0.350071 
-0.00366947 -0.203669 -0.250097 
-0.00360232 -0.00360232 -0.350071 
-0.00360232 -0.00360232 -0.250097 
-0.00498154 0.37984 -0.377484 
0.025519 0.384816 -0.297026 
0.1949 -0.208913 -0.391898 
0.18766 -0.196789 -0.303211 
0.185182 -0.0159786 -0.384305 
0.186711 -0.00299044 -0.308618 
0.196913 0.396913 -0.35007 
0.196913 0.396913 -0.250094 
0.396713 -0.403287 -0.350071 
0.396713 -0.403287 -0.250096 
0.39661 -0.20339 -0.350069 
0.39661 -0.20339 -0.250094 
0.396488 -0.00351175 -0.350071 
0.396488 -0.00351175 -0.250096 
0.396508 0.196508 -0.350069 
0.396508 0.196508 -0.250093 
-0.403969 -0.403644 -0.315894 
-0.411258 -0.403739 -0.238974 
-0.403333 -0.203333 -0.250096 
-0.403333 -0.203333 -0.150115 
-0.403777 -0.00352822 -0.310853 
-0.406102 0.00277179 -0.23429 
-0.40295 0.19705 -0.250096 
-0.40295 0.19705 -0.150115 
-0.402763 0.397237 -0.250095 
-0.402763 0.397237 -0.150114 
-0.192715 -0.402317 -0.32318 
-0.183582 -0.40544 -0.232778 
-0.203538 -0.203538 -0.250097 
-0.203538 -0.203538 -0.150116 
-0.203218 -0.00321788 -0.250096 
-0.203218 -0.00321788 -0.150115 
0.00303555 -0.406723 -0.275246 
0.00145521 -0.400823 -0.185986 
-0.00366947 -0.203669 -0.250097 
-0.00366947 -0.203669 -0.150116 
-0.00360232 -0.00360232 -0.250097 
-0.00360232 -0.00360232 -0.150116 
0.025519 0.384816 -0.297026 
0.00441307 0.404046 -0.216981 
0.18766 -0.196789 -0.303211 
0.192564 -0.200567 -0.213932 
0.186711 -0.00299044 -0.308618 
0.19209 -0.00222989 -0.233258 
0.196913 0.396913 -0.250094 
0.196913 0.396913 -0.150113 
0.396713 -0.403287 -0.250096 
0.396713 -0.403287 -0.150115 
0.39661 -0.20339 -0.250094 
0.39661 -0.20339 -0.150112 
0.396488 -0.00351175 -0.250096 
0.396488 -0.00351175 -0.150115 
0.396508 0.196508 -0.250093 
0.396508 0.196508 -0.150111 
-0.411258 -0.403739 -0.238974 
-0.40789 -0.404739 -0.15715 
-0.403333 -0.203333 -0.150115 
-0.403333 -0.203333 -0.0501278 
-0.406102 0.00277179 -0.23429 
-0.404426 -0.00522923 -0.149054 
-0.40295 0.19705 -0.150115 
-0.40295 0.19705 -0.0501273 
-0.402763 0.397237 -0.150114 
-0.402763 0.397237 -0.050126 
-0.203538 -0.203538 -0.150116 
-0.203538 -0.203538 -0.0501283 
-0.203218 -0.00321788 -0.150115 
-0.203218 -0.00321788 -0.0501276 
-0.206859 0.395856 -0.26182 
-0.202111 0.394969 -0.162154 
0.00145521 -0.400823 -0.185986 
-0.00655146 -0.401811 -0.102048 
-0.00366947 -0.203669 -0.150116 
-0.00366947 -0.203669 -0.0501293 
-0.00360232 -0.00360232 -0.150116 
-0.00360232 -0.00360232 -0.0501284 
0.00441307 0.404046 -0.216981 
-0.00973932 0.400475 -0.125222 
0.192564 -0.200567 -0.213932 
0.194275 -0.210386 -0.124382 
0.19209 -0.00222989 -0.233258 
0.187116 -0.00334174 -0.160623 
0.196913 0.396913 -0.150113 
0.196913 0.396913 -0.0501254 
0.396713 -0.403287 -0.150115 
0.396713 -0.403287 -0.0501279 
0.39661 -0.20339 -0.150112 
0.39661 -0.20339 -0.0501242 
0.396488 -0.00351175 -0.150115 
0.396488 -0.00351175 -0.0501277 
0.396508 0.196508 -0.150111 
0.396508 0.196508 -0.0501234 
-0.40789 -0.404739 -0.15715 
-0.404268 -0.403479 -0.0711247 
-0.403333 -0.203333 -0.0501278 
-0.403333 -0.203333 0.0498659 
-0.404426 -0.00522923 -0.149054 
-0.404196 -0.00301181 -0.0659263 
-0.40295 0.19705 -0.0501273 
-0.40295 0.19705 0.0498665 
-0.402763 0.397237 -0.050126 
-0.402763 0.397237 0.0498678 
-0.208124 -0.403076 -0.138849 
-0.202515 -0.402872 -0.0268046 
-0.203538 -0.203538 -0.0501283 
-0.203538 -0.203538 0.0498654 
-0.203218 -0.00321788 -0.0501276 
-0.203218 -0.00321788 0.0498661 
-0.00655146 -0.401811 -0.102048 
-0.00619239 -0.402952 -0.0158308 
-0.00366947 -0.203669 -0.0501293 
-0.00366947 -0.203669 0.0498644 
-0.00360232 -0.00360232 -0.0501284 
-0.00360232 -0.00360232 0.0498652 
0.194275 -0.210386 -0.124382 
0.196238 -0.203486 -0.0314715 
0.187116 -0.00334174 -0.160623 
0.197585 -0.00227415 -0.0725464 
0.196913 0.396913 -0.0501254 
0.196913 0.396913 0.0498684 
0.396713 -0.403287 -0.0501279 
0.396713 -0.403287 0.0498658 
0.39661 -0.20339 -0.0501242 
0.39661 -0.20339 0.0498697 
0.396488 -0.00351175 -0.0501277 
0.396488 -0.00351175 0.049866 
0.396508 0.196508 -0.0501234 
0.396508 0.196508 0.0498706 
0.379086 0.435347 -0.457183 
0.407598 0.42393 -0.500009 
0.172802 -0.00993522 -0.462528 
0.205432 -0.0200892 -0.500022 
-0.412822 -0.00758129 -0.464654 
-0.40687 -0.00385023 -0.500031 
-0.0378803 0.39402 -0.464883 
-0.0407973 0.401685 -0.500019 
0.0320077 0.157708 -0.45081 
0.0366203 0.154737 -0.500003 
-0.174701 0.191894 -0.461744 
-0.188147 0.19782 -0.500013 
0.39661 -0.20339 -0.450038 
0.39661 -0.20339 -0.5 
-0.416947 -0.405395 -0.462867 
-0.392121 -0.405173 -0.500044 
0.396508 0.196508 -0.450038 
0.396508 0.196508 -0.5 
0.188962 -0.39881 -0.464446 
0.194267 -0.395589 -0.500003 
0.157417 0.216196 -0.463359 
0.155266 0.228867 -0.500003 
0.174481 -0.212311 -0.464805 
0.199674 -0.186181 -0.500008 
-0.243538 0.369571 -0.46372 
-0.227056 0.368906 -0.499999 
-0.0249149 -0.410974 -0.452193 
0.0059205 -0.41924 -0.500016 
0.396488 -0.00351175 -0.450039 
0.396488 -0.00351175 -0.5 
-0.403333 -0.203333 -0.450039 
-0.403333 -0.203333 -0.5 
-0.40295 0.19705 -0.450039 
-0.40295 0.19705 -0.5 
-0.402763 0.397237 -0.450038 
-0.402763 0.397237 -0.5 
-0.203538 -0.203538 -0.450039 
-0.203538 -0.203538 -0.5 
-0.203218 -0.00321788 -0.450039 
-0.203218 -0.00321788 -0.5 
-0.00366947 -0.203669 -0.450039 
-0.00366947 -0.203669 -0.5 
-0.00360232 -0.00360232 -0.450039 
-0.00360232 -0.00360232 -0.5 
0.196913 0.396913 -0.450038 
0.196913 0.396913 -0.5 
0.396713 -0.403287 -0.450039 
0.396713 -0.403287 -0.5 
-0.257171 -0.434523 -0.460257 
-0.260581 -0.418897 -0.500029 
LINES 121 363
2 0 1
2 2 3
2 4 5
2 6 7
2 8 9
2 10 11
2 12 13
2 14 15
2 16 17
2 18 19
2 20 21
2 22 23
2 24 25
2 26 27
2 28 29
2 30 31
2 32 33
2 34 35
2 36 37
2 38 39
2 40 41
2 42 43
2 44 45
2 46 47
2 48 49
2 50 51
2 52 53
2 54 55
2 56 57
2 58 59
2 60 61
2 62 63
2 64 65
2 66 67
2 68 69
2 70 71
2 72 73
2 74 75
2 76 77
2 78 79
2 80 81
2 82 83
2 84 85
2 86 87
2 88 89
2 90 91
2 92 93
2 94 95
2 96 97
2 98 99
2 100 101
2 102 103
2 104 105
2 106 107
2 108 109
2 110 111
2 112 113
2 114 115
2 116 117
2 118 119
2 120 121
2 122 123
2 124 125
2 126 127
2 128 129
2 130 131
2 132 133
2 134 135
2 136 137
2 138 139
2 140 141
2 142 143
2 144 145
2 146 147
2 148 149
2 150 151
2 152 153
2 154 155
2 156 157
2 158 159
2 160 161
2 162 163
2 164 165
2 166 167
2 168 169
2 170 171
2 172 173
2 174 175
2 176 177
2 178 179
2 180 181
2 182 183
2 184 185
2 186 187
2 188 189
2 190 191
2 192 193
2 194 195
2 196 197
2 198 199
2 200 201
2 202 203
2 204 205
2 206 207
2 208 209
2 210 211
2 212 213
2 214 215
2 216 217
2 218 219
2 220 221
2 222 223
2 224 225
2 226 227
2 228 229
2 230 231
2 232 233
2 234 235
2 236 237
2 238 239
2 240 241
POINT_DATA 242
SCALARS id int 1
LOOKUP_TABLE default
0
25
1
26
2
27
3
28
4
29
5
30
6
31
7
32
8
33
10
35
11
36
12
37
14
39
16
41
17
42
19
44
20
45
21
46
22
47
23
48
25
50
26
51
27
52
28
53
29
54
30
55
31
56
32
57
33
58
35
60
36
61
37
62
39
64
41
66
42
67
44
69
45
70
46
71
47
72
48
73
50
75
51
76
52
77
53
78
54
79
55
80
56
81
57
82
60
85
61
86
62
87
64
89
66
91
67
92
69
94
70
95
71
96
72
97
73
98
75
100
76
101
77
102
78
103
79
104
81
106
82
107
84
109
85
110
86
111
87
112
89
114
91
116
92
117
94
119
95
120
96
121
97
122
98
123
100
125
101
126
102
127
103
128
104
129
105
130
106
131
107
132
110
135
111
136
112
137
116
141
117
142
119
144
120
145
121
146
122
147
123
148
24
4
17
4
2
4
14
4
13
4
8
4
21
4
0
4
23
4
15
4
18
4
16
4
9
4
10
4
22
4
1
4
3
4
4
4
6
4
7
4
11
4
12
4
19
4
20
4
5
4
CELL_DATA 121
VECTORS force double
-1.23979 -4.32431 -108.64 
0 0 -64.7444 
-11.0858 -3.1599 -112.784 
0 0 -64.4187 
0 0 -63.7036 
-1.31507 6.3461 -55.4712 
0 0 -64.982 
0 0 -64.6856 
8.46675 4.04673 -26.1898 
-5.18836 -12.6688 -98.7516 
0 0 -65.525 
0 0 -65.1039 
-11.0848 3.23891 -33.9479 
2.83837 7.01765 -36.7329 
-18.0747 -22.5144 -128.825 
0 0 -63.2201 
0 0 -64.7758 
0 0 -62.3198 
0 0 -64.6705 
0 0 -61.3479 
-0.712944 19.8785 -108.229 
0 0 -51.4506 
-10.0878 -0.400444 -111.379 
0 0 -51.173 
0 0 -50.5612 
6.7271 2.84889 -15.0087 
0 0 -51.6624 
0 0 -51.3977 
6.16801 3.10818 -1.00541 
-12.2586 -7.57773 -146.561 
0 0 -52.1392 
0 0 -51.766 
-4.37146 1.92238 -20.3009 
4.42832 2.57541 -29.8657 
-28.8179 -30.1967 -173.5 
0 0 -50.1878 
0 0 -51.4829 
0 0 -49.4596 
0 0 -51.3885 
0 0 -48.5263 
7.2329 0.0742092 -97.8921 
0 0 -38.36 
-2.57332 -7.81325 -115.834 
0 0 -38.1481 
0 0 -37.6752 
-5.36829 -1.42097 11.3106 
0 0 -38.5313 
0 0 -38.3168 
-9.7605 -10.991 -177.744 
0 0 -38.9087 
0 0 -38.6097 
0.380627 0.58055 -7.99136 
-3.45098 0.09558 -45.9551 
-11.4608 15.6989 -207.674 
0 0 -37.4153 
0 0 -38.3905 
0 0 -36.87 
0 0 -38.3138 
0 0 -36.0434 
8.29008 -13.0418 -47.7994 
0 0 -25.4573 
-8.4488 -15.8127 -121.191 
0 0 -25.3176 
0 0 -24.9999 
0 0 -25.577 
0 0 -25.4268 
0.54126 1.06439 9.32542 
9.65957 4.17754 -135.496 
0 0 -25.8341 
0 0 -25.6277 
1.48205 -0.155463 -4.14034 
0.000711197 0.620364 -42.5177 
7.78917 5.48376 -205.335 
0 0 -24.8392 
0 0 -25.4817 
0 0 -24.4754 
0 0 -25.4278 
0 0 -23.85 
5.64238 4.56907 -9.24447 
0 0 -12.6928 
148.419 51.1623 -132.825 
0 0 -12.6242 
0 0 -12.4655 
0.580676 0.0802808 3.17296 
0 0 -12.7542 
0 0 -12.6771 
28.673 16.4458 -60.4094 
0 0 -12.8833 
0 0 -12.7786 
4.1942 4.80054 -14.789 
46.3825 -3.61765 -76.3313 
0 0 -12.3892 
0 0 -12.7064 
0 0 -12.2069 
0 0 -12.6787 
0 0 -11.8689 
-8.82292 2.845 12.0535 
9.81405 14.9689 112.69 
2.9705 -0.762839 111.325 
12.8529 -5.33651 50.3014 
-0.795417 0.497974 12.0572 
-10.9729 -6.47326 49.885 
0 0 75.5259 
-0.671173 5.42709 106.604 
0 0 74.5418 
-1.18145 -0.8857 14.1549 
0.374617 -1.33061 11.3022 
-3.19058 -11.8234 49.9031 
-2.99149 -0.763843 12.0763 
-0.982865 7.01006 80.4202 
0 0 78.1328 
0 0 78.2128 
0 0 77.8624 
0 0 77.094 
0 0 78.4618 
0 0 78.1516 
0 0 79.036 
0 0 78.5931 
0 0 76.5394 
0 0 78.2427 
6.20664 14.4736 122.173 
VECTORS moment double
0 0 0 
0 0 0 
0 0 0 
0 0 0 
0 0 0 
0 0 0 
0 0 0 
0 0 0 
0 0 0 
0 0 0 
0 0 0 
0 0 0 
0 0 0 
0 0 0 
0 0 0 
0 0 0 
0 0 0 
0 0 0 
0 0 0 
0 0 0 
0 0 0 
0 0 0 
0 0 0 
0 0 0 
0 0 0 
0 0 0 
0 0 0 
0 0 0 
0 0 0 
0 0 0 
0 0 0 
0 0 0 
0 0 0 
0 0 0 
0 0 0 
0 0 0 
0 0 0 
0 0 0 
0 0 0 
0 0 0 
0 0 0 
0 0 0 
0 0 0 
0 0 0 
0 0 0 
0 0 0 
0 0 0 
0 0 0 
0 0 0 
0 0 0 
0 0 0 
0 0 0 
0 0 0 
0 0 0 
0 0 0 
0 0 0 
0 0 0 
0 0 0 
0 0 0 
0 0 0 
0 0 0 
0 0 0 
0 0 0 
0 0 0 
0 0 0 
0 0 0 
0 0 0 
0 0 0 
0 0 0 
0 0 0 
0 0 0 
0 0 0 
0 0 0 
0 0 0 
0 0 0 
0 0 0 
0 0 0 
0 0 0 
0 0 0 
0 0 0 
0 0 0 
0 0 0 
0 0 0 
0 0 0 
0 0 0 
0 0 0 
0 0 0 
0 0 0 
0 0 0 
0 0 0 
0 0 0 
0 0 0 
0 0 0 
0 0 0 
0 0 0 
0 0 0 
0 0 0 
0 0 0 
0 0 0 
0 0 0 
0 0 0 
0 0 0 
0 0 0 
0 0 0 
0 0 0 
0 0 0 
0 0 0 
0 0 0 
0 0 0 
0 0 0 
0 0 0 
0 0 0 
0 0 0 
0 0 0 
0 0 0 
0 0 0 
0 0 0 
0 0 0 
0 0 0 
0 0 0 
0 0 0 
SCALARS num_collisions int 1
LOOKUP_TABLE default
1 
1 
1 
1 
1 
1 
1 
1 
1 
1 
1 
1 
1 
1 
1 
1 
1 
1 
1 
1 
1 
1 
1 
1 
1 
1 
1 
1 
1 
1 
1 
1 
1 
1 
1 
1 
1 
1 
1 
1 
1 
1 
1 
1 
1 
1 
1 
1 
1 
1 
1 
1 
1 
1 
1 
1 
1 
1 
1 
1 
1 
1 
1 
1 
1 
1 
1 
1 
1 
1 
1 
1 
1 
1 
1 
1 
1 
1 
1 
1 
1 
1 
1 
1 
1 
1 
1 
1 
1 
1 
1 
1 
1 
1 
1 
1 
1 
1 
1 
1 
1 
1 
1 
1 
1 
1 
1 
1 
1 
1 
1 
1 
1 
1 
1 
1 
1 
1 
1 
1 
1 
VECTORS pos double
-0.392095 -0.401319 -0.424045 
-0.403333 -0.203333 -0.400055 
-0.403787 -0.00429082 -0.425324 
-0.40295 0.19705 -0.400054 
-0.402763 0.397237 -0.400054 
-0.257918 -0.394416 -0.427046 
-0.203538 -0.203538 -0.400055 
-0.203218 -0.00321788 -0.400055 
-0.218451 0.190255 -0.447488 
-0.000609193 -0.411524 -0.421976 
-0.00366947 -0.203669 -0.400055 
-0.00360232 -0.00360232 -0.400055 
-0.0165989 0.395329 -0.427021 
0.200403 -0.197075 -0.428293 
0.20917 -0.00999219 -0.425322 
0.196913 0.396913 -0.400054 
0.396713 -0.403287 -0.400055 
0.39661 -0.20339 -0.400053 
0.396488 -0.00351175 -0.400055 
0.396508 0.196508 -0.400053 
-0.386482 -0.403141 -0.348506 
-0.403333 -0.203333 -0.300083 
-0.392271 -0.00118399 -0.34496 
-0.40295 0.19705 -0.300083 
-0.402763 0.397237 -0.300082 
-0.244785 -0.420472 -0.339419 
-0.203538 -0.203538 -0.300084 
-0.203218 -0.00321788 -0.300083 
-0.226614 0.194398 -0.354277 
0.0020712 -0.396876 -0.328953 
-0.00366947 -0.203669 -0.300084 
-0.00360232 -0.00360232 -0.300084 
0.018808 0.396149 -0.330488 
0.194911 -0.191794 -0.34428 
0.212046 0.00397627 -0.349019 
0.196913 0.396913 -0.300082 
0.396713 -0.403287 -0.300083 
0.39661 -0.20339 -0.300081 
0.396488 -0.00351175 -0.300083 
0.396508 0.196508 -0.300081 
-0.390105 -0.414878 -0.272382 
-0.403333 -0.203333 -0.200106 
-0.391442 -0.0086692 -0.265749 
-0.40295 0.19705 -0.200105 
-0.402763 0.397237 -0.200104 
-0.17113 -0.407057 -0.276091 
-0.203538 -0.203538 -0.200106 
-0.203218 -0.00321788 -0.200105 
0.00883059 -0.395166 -0.227697 
-0.00366947 -0.203669 -0.200107 
-0.00360232 -0.00360232 -0.200106 
0.0166228 0.397136 -0.254511 
0.189261 -0.19641 -0.252634 
0.215245 0.0101337 -0.273245 
0.196913 0.396913 -0.200104 
0.396713 -0.403287 -0.200106 
0.39661 -0.20339 -0.200103 
0.396488 -0.00351175 -0.200105 
0.396508 0.196508 -0.200102 
-0.390299 -0.396395 -0.189234 
-0.403333 -0.203333 -0.100121 
-0.389684 0.00347459 -0.180838 
-0.40295 0.19705 -0.100121 
-0.402763 0.397237 -0.10012 
-0.203538 -0.203538 -0.100122 
-0.203218 -0.00321788 -0.100121 
-0.202723 0.425894 -0.206466 
0.0162617 -0.386884 -0.146007 
-0.00366947 -0.203669 -0.100123 
-0.00360232 -0.00360232 -0.100122 
0.0178667 0.407148 -0.172605 
0.202982 -0.195668 -0.162423 
0.21531 -0.00725894 -0.196739 
0.196913 0.396913 -0.100119 
0.396713 -0.403287 -0.100121 
0.39661 -0.20339 -0.100118 
0.396488 -0.00351175 -0.100121 
0.396508 0.196508 -0.100118 
-0.378367 -0.404418 -0.109675 
-0.403333 -0.203333 -0.000130751 
-0.382204 -0.000937385 -0.0994954 
-0.40295 0.19705 -0.000130233 
-0.402763 0.397237 -0.000128927 
-0.213053 -0.407405 -0.0832394 
-0.203538 -0.203538 -0.000131289 
-0.203218 -0.00321788 -0.000130591 
0.0117364 -0.397257 -0.0654939 
-0.00366947 -0.203669 -0.000132251 
-0.00360232 -0.00360232 -0.000131416 
0.191368 -0.197102 -0.0655005 
0.220602 0.00674439 -0.119209 
0.196913 0.396913 -0.00012844 
0.396713 -0.403287 -0.000130909 
0.39661 -0.20339 -0.000127223 
0.396488 -0.00351175 -0.000130648 
0.396508 0.196508 -0.000126524 
0.407598 0.42393 -0.500009 
0.205432 -0.0200892 -0.500022 
-0.40687 -0.00385023 -0.500031 
-0.0407973 0.401685 -0.500019 
0.0366203 0.154737 -0.500003 
-0.188147 0.19782 -0.500013 
0.39661 -0.20339 -0.5 
-0.392121 -0.405173 -0.500044 
0.396508 0.196508 -0.5 
0.194267 -0.395589 -0.500003 
0.155266 0.228867 -0.500003 
0.199674 -0.186181 -0.500008 
-0.227056 0.368906 -0.499999 
0.0059205 -0.41924 -0.500016 
0.396488 -0.00351175 -0.5 
-0.403333 -0.203333 -0.5 
-0.40295 0.19705 -0.5 
-0.402763 0.397237 -0.5 
-0.203538 -0.203538 -0.5 
-0.203218 -0.00321788 -0.5 
-0.00366947 -0.203669 -0.5 
-0.00360232 -0.00360232 -0.5 
0.196913 0.396913 -0.5 
0.396713 -0.403287 -0.5 
-0.260581 -0.418897 -0.500029 
VECTORS dir_n double
-0.0367261 -0.00105643 -0.999325 
1.54454e-17 0 -1 
0.21965 -0.0224991 -0.975319 
1.55234e-17 0 -1 
1.56977e-17 0 -1 
0.385569 -0.326635 -0.862929 
1.53889e-17 0 -1 
1.54594e-17 0 -1 
0.67725 0.397782 -0.618952 
-0.290638 0.0814701 -0.953358 
1.52614e-17 0 -1 
1.53601e-17 0 -1 
-0.113459 0.288473 -0.950742 
-0.268203 0.16437 -0.949236 
-0.144722 0.0145959 -0.989365 
1.58178e-17 0 -1 
1.54379e-17 0 -1 
1.60463e-17 0 -1 
1.5463e-17 0 -1 
1.63005e-17 0 -1 
0.169582 0.0882724 -0.981555 
1.94361e-17 0 -1 
0.177385 -0.0827765 -0.980654 
1.95416e-17 0 -1 
1.9778e-17 0 -1 
-0.825837 -0.134264 -0.547692 
1.93564e-17 0 -1 
1.94561e-17 0 -1 
0.588096 -0.0706319 0.805701 
-0.494072 0.22433 -0.839982 
1.91794e-17 0 -1 
1.93177e-17 0 -1 
-0.168695 0.0912494 -0.981435 
-0.205352 0.24496 -0.947537 
-0.114442 -0.0174822 -0.993276 
1.99252e-17 0 -1 
1.94239e-17 0 -1 
2.02185e-17 0 -1 
1.94596e-17 0 -1 
2.06074e-17 0 -1 
0.204556 0.147132 -0.967734 
2.60688e-17 0 -1 
0.396901 -0.0213428 -0.917613 
2.62137e-17 0 -1 
2.65426e-17 0 -1 
-0.0941324 0.147456 0.984579 
2.59529e-17 0 -1 
2.60982e-17 0 -1 
-0.418247 0.13511 -0.898229 
2.57012e-17 0 -1 
2.59003e-17 0 -1 
0.0590065 0.161422 -0.98512 
-0.278106 0.489052 -0.826732 
-0.076623 -0.0768388 -0.994095 
2.6727e-17 0 -1 
2.60481e-17 0 -1 
2.71224e-17 0 -1 
2.61003e-17 0 -1 
2.77443e-17 0 -1 
0.177352 0.194288 -0.964779 
3.92814e-17 0 -1 
0.199697 0.149766 -0.968345 
3.94983e-17 0 -1 
4.00002e-17 0 -1 
3.90976e-17 0 -1 
3.93286e-17 0 -1 
0.17186 0.223535 0.959425 
-0.290689 0.245243 -0.924854 
3.87085e-17 0 -1 
3.90203e-17 0 -1 
0.0214069 0.350421 -0.936348 
-0.322115 0.516786 -0.793205 
-0.0225076 0.0587836 -0.998017 
4.02589e-17 0 -1 
3.92439e-17 0 -1 
4.08573e-17 0 -1 
3.93271e-17 0 -1 
4.19287e-17 0 -1 
-0.0341637 0.13155 -0.990721 
7.87847e-17 0 -1 
0.158593 0.0818864 -0.983943 
7.9213e-17 0 -1 
8.02215e-17 0 -1 
0.506992 0.136097 0.851138 
7.84058e-17 0 -1 
7.88824e-17 0 -1 
-0.242353 0.295823 -0.923988 
7.76201e-17 0 -1 
7.82558e-17 0 -1 
-0.160822 0.177706 -0.970854 
-0.14539 0.110519 -0.983182 
8.07153e-17 0 -1 
7.87003e-17 0 -1 
8.1921e-17 0 -1 
7.88724e-17 0 -1 
8.42541e-17 0 -1 
1.84891e-16 5.07596e-17 1 
-1.25912e-17 -3.46785e-17 1 
-4.41025e-17 -6.98191e-17 1 
-6.02376e-17 7.54544e-17 1 
5.9315e-18 -1.48908e-16 1 
7.81748e-17 -2.27713e-17 1 
1.32405e-17 0 1 
-1.04834e-16 -1.74723e-16 1 
1.34153e-17 0 1 
1.54721e-16 -1.24804e-16 1 
2.30357e-17 3.90361e-17 1 
-4.00541e-17 -3.00751e-17 1 
2.69389e-16 -6.81693e-17 1 
-7.75585e-17 -4.22677e-17 1 
1.27987e-17 0 1 
1.27856e-17 0 1 
1.28432e-17 0 1 
1.29712e-17 0 1 
1.27451e-17 0 1 
1.27956e-17 0 1 
1.26525e-17 0 1 
1.27238e-17 0 1 
1.30652e-17 0 1 
1.27807e-17 0 1 
-2.30984e-16 -9.72089e-18 1 
VECTORS dir_s double
0.546712 -0.8371 -0.0192073 
1 0 0 
-0.975459 -0.0207338 -0.219204 
1 0 0 
1 0 0 
-0.574536 0.646812 -0.501541 
1 0 0 
1 0 0 
-0.505604 -0.359528 -0.784285 
0.710539 -0.648932 -0.272068 
1 0 0 
1 0 0 
-0.725432 -0.677908 -0.119119 
0.962126 0.0956133 -0.255289 
0.0287349 -0.999407 -0.0189473 
1 0 0 
1 0 0 
1 0 0 
1 0 0 
1 0 0 
-0.872944 0.475707 -0.108037 
1 0 0 
-0.941908 0.274496 -0.193547 
1 0 0 
1 0 0 
0.520805 0.19082 -0.832075 
1 0 0 
1 0 0 
0.716285 0.508112 -0.478287 
0.687621 -0.490406 -0.535425 
1 0 0 
1 0 0 
-0.984881 0.0241793 0.171535 
0.882713 -0.371769 -0.287413 
-0.303749 -0.951346 0.051741 
1 0 0 
1 0 0 
1 0 0 
1 0 0 
1 0 0 
-0.641961 -0.726169 -0.2461 
1 0 0 
-0.912772 -0.114308 -0.392149 
1 0 0 
1 0 0 
-0.810027 -0.586301 0.0103636 
1 0 0 
1 0 0 
0.784627 -0.444474 -0.432207 
1 0 0 
1 0 0 
-0.125169 -0.977855 -0.167729 
0.301177 -0.772888 -0.558514 
0.135595 0.98696 -0.0867387 
1 0 0 
1 0 0 
1 0 0 
1 0 0 
1 0 0 
0.0134973 -0.980707 -0.195015 
1 0 0 
-0.66677 -0.70339 -0.246293 
1 0 0 
1 0 0 
1 0 0 
1 0 0 
-0.693252 -0.6645 0.279002 
0.804277 -0.46097 -0.375026 
1 0 0 
1 0 0 
0.659065 -0.709197 -0.250344 
0.430494 -0.666267 -0.608903 
0.882676 -0.46758 -0.047447 
1 0 0 
1 0 0 
1 0 0 
1 0 0 
1 0 0 
0.873999 0.48472 0.0342232 
1 0 0 
0.940348 0.291269 0.175806 
1 0 0 
1 0 0 
-0.804302 -0.280362 0.523923 
1 0 0 
1 0 0 
0.968198 0.0127746 -0.249859 
1 0 0 
1 0 0 
0.942413 0.319908 -0.0975543 
0.96763 -0.191313 -0.164595 
1 0 0 
1 0 0 
1 0 0 
1 0 0 
1 0 0 
-0.951743 0.306895 8.14311e-17 
0.548294 0.836285 4.07702e-17 
0.968572 -0.248734 3.40504e-17 
0.923557 -0.38346 1.02927e-16 
-0.847597 0.530641 1.37462e-17 
-0.861296 -0.508104 3.84958e-17 
1 0 0 
-0.122736 0.992439 1.59384e-16 
1 0 0 
-0.800125 -0.599833 -7.59142e-18 
0.271002 -0.962579 5.53104e-17 
-0.260535 -0.965465 -4.46928e-17 
-0.968913 -0.247401 1.63917e-16 
-0.13885 0.990313 2.93627e-17 
1 0 0 
1 0 0 
1 0 0 
1 0 0 
1 0 0 
1 0 0 
1 0 0 
1 0 0 
1 0 0 
1 0 0 
0.394117 0.91906 1.03195e-16 
