# vtk DataFile Version 2.0
Generated by NetDEM
ASCII 
DATASET POLYDATA
POINTS 408 double
-0.416615 -0.405254 -0.464721 
-0.403636 -0.399203 -0.392353 
-0.403333 -0.203333 -0.470664 
-0.403333 -0.203333 -0.391367 
-0.408361 -0.0075652 -0.462853 
-0.398931 -0.00808107 -0.387024 
-0.402763 0.397237 -0.470666 
-0.402763 0.397237 -0.39137 
-0.264532 -0.430902 -0.458929 
-0.305826 -0.408944 -0.39013 
-0.203538 -0.203538 -0.470665 
-0.203538 -0.203538 -0.391368 
-0.203218 -0.00321788 -0.470665 
-0.203218 -0.00321788 -0.391368 
-0.170346 0.201541 -0.461962 
-0.174805 0.191012 -0.381628 
-0.246888 0.369124 -0.465049 
-0.15754 0.419258 -0.446612 
-0.0421984 -0.398601 -0.457467 
-0.0615393 -0.401149 -0.383288 
-0.00366947 -0.203669 -0.470665 
-0.00366947 -0.203669 -0.391368 
-0.00360232 -0.00360232 -0.470665 
-0.00360232 -0.00360232 -0.391368 
-0.0419383 0.396537 -0.463909 
-0.101784 0.444706 -0.369104 
0.171413 -0.208184 -0.462986 
0.171099 -0.186149 -0.386443 
0.400427 -0.400674 -0.450019 
0.401087 -0.349627 -0.364036 
0.400427 -0.400674 -0.450019 
0.397623 -0.449995 -0.363084 
0.38519 0.0916277 -0.450038 
0.449995 0.135101 -0.387544 
-0.403636 -0.399203 -0.392353 
-0.404901 -0.40331 -0.321587 
-0.403333 -0.203333 -0.391367 
-0.403333 -0.203333 -0.312125 
-0.402763 0.397237 -0.39137 
-0.402763 0.397237 -0.31213 
-0.203538 -0.203538 -0.391368 
-0.203538 -0.203538 -0.312128 
-0.203218 -0.00321788 -0.391368 
-0.203218 -0.00321788 -0.312128 
-0.15754 0.419258 -0.446612 
-0.214825 0.453719 -0.389651 
-0.0615393 -0.401149 -0.383288 
0.0267471 -0.429976 -0.346506 
-0.0615393 -0.401149 -0.383288 
-0.057798 -0.356406 -0.296919 
-0.00366947 -0.203669 -0.391368 
-0.00366947 -0.203669 -0.312127 
-0.00360232 -0.00360232 -0.391368 
-0.00360232 -0.00360232 -0.312127 
0.00592442 0.257006 -0.446239 
0.0481261 0.346779 -0.441472 
0.00592442 0.257006 -0.446239 
-0.0397201 0.257523 -0.367099 
0.1975 0.112308 -0.455656 
0.274698 0.0662953 -0.443486 
0.318812 -0.159084 -0.450044 
0.401257 -0.203165 -0.414615 
0.424027 0.346034 -0.4542 
0.422931 0.372341 -0.357196 
-0.404901 -0.40331 -0.321587 
-0.420879 -0.410153 -0.251229 
-0.403333 -0.203333 -0.312125 
-0.403333 -0.203333 -0.23297 
-0.194152 0.297645 -0.373446 
-0.110717 0.352546 -0.354644 
-0.402763 0.397237 -0.31213 
-0.402763 0.397237 -0.232978 
-0.180553 -0.366769 -0.454329 
-0.149407 -0.430149 -0.378364 
-0.203538 -0.203538 -0.312128 
-0.203538 -0.203538 -0.232974 
-0.203218 -0.00321788 -0.312128 
-0.203218 -0.00321788 -0.232976 
-0.174805 0.191012 -0.381628 
-0.220181 0.216973 -0.304702 
-0.214825 0.453719 -0.389651 
-0.286374 0.444129 -0.330354 
0.0267471 -0.429976 -0.346506 
0.0364315 -0.373809 -0.273964 
-0.00366947 -0.203669 -0.312127 
-0.00366947 -0.203669 -0.232973 
-0.00360232 -0.00360232 -0.312127 
-0.00360232 -0.00360232 -0.232974 
-0.0397201 0.257523 -0.367099 
-0.0310256 0.2132 -0.299282 
0.448723 0.234232 -0.361682 
0.407679 0.166543 -0.300778 
0.448723 0.234232 -0.361682 
0.439044 0.260049 -0.456922 
-0.420879 -0.410153 -0.251229 
-0.427585 -0.414858 -0.165468 
-0.403333 -0.203333 -0.23297 
-0.403333 -0.203333 -0.153933 
-0.402763 0.397237 -0.232978 
-0.402763 0.397237 -0.153944 
-0.149407 -0.430149 -0.378364 
-0.242461 -0.40158 -0.333683 
-0.149407 -0.430149 -0.378364 
-0.161428 -0.4151 -0.281909 
-0.203538 -0.203538 -0.232974 
-0.203538 -0.203538 -0.153939 
-0.203218 -0.00321788 -0.232976 
-0.203218 -0.00321788 -0.153941 
-0.00366947 -0.203669 -0.232973 
-0.00366947 -0.203669 -0.153938 
-0.00360232 -0.00360232 -0.232974 
-0.00360232 -0.00360232 -0.153938 
0.218749 -0.402546 -0.227096 
0.215104 -0.401078 -0.155816 
0.25466 0.175339 -0.427134 
0.213093 0.214326 -0.360463 
0.407679 0.166543 -0.300778 
0.381908 0.13769 -0.208728 
-0.427585 -0.414858 -0.165468 
-0.426775 -0.411194 -0.0859779 
-0.403333 -0.203333 -0.153933 
-0.403333 -0.203333 -0.0750443 
-0.402763 0.397237 -0.153944 
-0.402763 0.397237 -0.0750579 
-0.242461 -0.40158 -0.333683 
-0.161428 -0.4151 -0.281909 
-0.203538 -0.203538 -0.153939 
-0.203538 -0.203538 -0.075051 
-0.203218 -0.00321788 -0.153941 
-0.203218 -0.00321788 -0.0750523 
0.0364315 -0.373809 -0.273964 
-0.0276209 -0.387347 -0.205521 
-0.00366947 -0.203669 -0.153938 
-0.00366947 -0.203669 -0.0750497 
-0.00360232 -0.00360232 -0.153938 
-0.00360232 -0.00360232 -0.0750504 
-0.0310256 0.2132 -0.299282 
0.0144701 0.203171 -0.234493 
-0.0310256 0.2132 -0.299282 
-0.105098 0.181295 -0.218899 
0.215104 -0.401078 -0.155816 
0.209541 -0.399385 -0.0761623 
0.213093 0.214326 -0.360463 
0.202285 0.18069 -0.284473 
0.366513 0.45007 -0.193721 
0.398784 0.435893 -0.107265 
-0.426775 -0.411194 -0.0859779 
-0.413118 -0.410541 -0.00731335 
-0.403333 -0.203333 -0.0750443 
-0.403333 -0.203333 0.00367227 
-0.402763 0.397237 -0.0750579 
-0.402763 0.397237 0.00365669 
-0.161428 -0.4151 -0.281909 
-0.123958 -0.396068 -0.193949 
-0.203538 -0.203538 -0.075051 
-0.203538 -0.203538 0.00366519 
-0.203218 -0.00321788 -0.0750523 
-0.203218 -0.00321788 0.00366687 
-0.105098 0.181295 -0.218899 
-0.128522 0.253849 -0.159581 
-0.196926 0.350849 -0.290322 
-0.110717 0.352546 -0.354644 
-0.196926 0.350849 -0.290322 
-0.209373 0.402585 -0.239071 
-0.00366947 -0.203669 -0.0750497 
-0.00366947 -0.203669 0.00366662 
-0.00360232 -0.00360232 -0.0750504 
-0.00360232 -0.00360232 0.00366589 
0.0144701 0.203171 -0.234493 
0.027744 0.191909 -0.163687 
-0.110717 0.352546 -0.354644 
-0.0437662 0.34666 -0.291526 
0.209541 -0.399385 -0.0761623 
0.165469 -0.419379 -0.0211586 
0.429604 0.41067 -0.262071 
0.444379 0.384738 -0.165251 
-0.413118 -0.410541 -0.00731335 
-0.38787 -0.409051 0.0749728 
-0.403333 -0.203333 0.00367227 
-0.403333 -0.203333 0.0822013 
-0.402763 0.397237 0.00365669 
-0.402763 0.397237 0.0821845 
-0.203538 -0.203538 0.00366519 
-0.203538 -0.203538 0.0821945 
-0.203218 -0.00321788 0.00366687 
-0.203218 -0.00321788 0.0822006 
-0.00366947 -0.203669 0.00366662 
-0.00366947 -0.203669 0.082196 
-0.00360232 -0.00360232 0.00366589 
-0.00360232 -0.00360232 0.0821953 
0.165469 -0.419379 -0.0211586 
0.171242 -0.414167 0.0787558 
0.202285 0.18069 -0.284473 
0.208859 0.1447 -0.213007 
0.444379 0.384738 -0.165251 
0.398784 0.435893 -0.107265 
-0.38787 -0.409051 0.0749728 
-0.361042 -0.395806 0.14494 
-0.403333 -0.203333 0.0822013 
-0.403333 -0.203333 0.160539 
-0.402763 0.397237 0.0821845 
-0.402763 0.397237 0.160523 
-0.203538 -0.203538 0.0821945 
-0.203538 -0.203538 0.160533 
-0.203218 -0.00321788 0.0822006 
-0.203218 -0.00321788 0.160543 
-0.00366947 -0.203669 0.082196 
-0.00366947 -0.203669 0.160535 
-0.00360232 -0.00360232 0.0821953 
-0.00360232 -0.00360232 0.160534 
-0.042452 0.226341 -0.096125 
-0.0134654 0.195241 -0.00534189 
0.171242 -0.414167 0.0787558 
0.1865 -0.403253 0.147908 
0.196639 -0.0106502 0.0690843 
0.195826 -0.0183053 0.142559 
0.208859 0.1447 -0.213007 
0.184119 0.204488 -0.151622 
0.398784 0.435893 -0.107265 
0.399105 0.398248 -0.0398445 
-0.361042 -0.395806 0.14494 
-0.351648 -0.384676 0.217626 
-0.403333 -0.203333 0.160539 
-0.403333 -0.203333 0.238696 
-0.402763 0.397237 0.160523 
-0.402763 0.397237 0.238681 
-0.203538 -0.203538 0.160533 
-0.203538 -0.203538 0.23869 
-0.203218 -0.00321788 0.160543 
-0.203218 -0.00321788 0.238701 
-0.211399 0.398148 -0.0941537 
-0.205072 0.385482 -0.00468039 
-0.00366947 -0.203669 0.160535 
-0.00366947 -0.203669 0.238692 
-0.00360232 -0.00360232 0.160534 
-0.00360232 -0.00360232 0.238691 
-0.0134654 0.195241 -0.00534189 
0.0183629 0.169711 0.0747379 
0.1865 -0.403253 0.147908 
0.210913 -0.389594 0.218859 
0.195826 -0.0183053 0.142559 
0.193839 -0.0139133 0.224191 
0.184119 0.204488 -0.151622 
0.201318 0.206051 -0.0592329 
0.399105 0.398248 -0.0398445 
0.394483 0.398067 0.0442859 
-0.403333 -0.203333 0.472319 
-0.403333 -0.203333 0.394553 
-0.402763 0.397237 0.472315 
-0.402763 0.397237 0.394545 
-0.203538 -0.203538 0.472317 
-0.203538 -0.203538 0.39455 
-0.203218 -0.00321788 0.472321 
-0.203218 -0.00321788 0.394557 
-0.205072 0.385482 -0.00468039 
-0.201598 0.401877 0.0726366 
-0.00366947 -0.203669 0.472318 
-0.00366947 -0.203669 0.39455 
-0.00360232 -0.00360232 0.472317 
-0.00360232 -0.00360232 0.39455 
0.0183629 0.169711 0.0747379 
-0.0177539 0.195939 0.148595 
0.210913 -0.389594 0.218859 
0.214429 -0.389298 0.293998 
0.193839 -0.0139133 0.224191 
0.189812 -0.000372892 0.296106 
0.375248 -0.0827478 0.44541 
0.396492 -0.180306 0.444384 
0.394483 0.398067 0.0442859 
0.39824 0.392043 0.14522 
-0.400341 -0.400379 0.29099 
-0.449207 -0.450466 0.323759 
-0.403333 -0.203333 0.238696 
-0.403333 -0.203333 0.316691 
-0.402763 0.397237 0.238681 
-0.402763 0.397237 0.316678 
-0.203538 -0.203538 0.23869 
-0.203538 -0.203538 0.316686 
-0.203218 -0.00321788 0.238701 
-0.203218 -0.00321788 0.316696 
-0.201598 0.401877 0.0726366 
-0.202241 0.394276 0.165664 
-0.00282124 -0.397082 0.131178 
-0.00574517 -0.408251 0.222928 
-0.00366947 -0.203669 0.238692 
-0.00366947 -0.203669 0.316687 
-0.00360232 -0.00360232 0.238691 
-0.00360232 -0.00360232 0.316687 
0.214429 -0.389298 0.293998 
0.203759 -0.398055 0.373382 
0.189812 -0.000372892 0.296106 
0.175309 0.00184219 0.366651 
0.39824 0.392043 0.14522 
0.39687 0.3976 0.247653 
-0.403333 -0.203333 0.316691 
-0.403333 -0.203333 0.394553 
-0.402763 0.397237 0.316678 
-0.402763 0.397237 0.394545 
-0.203538 -0.203538 0.316686 
-0.203538 -0.203538 0.39455 
-0.203218 -0.00321788 0.316696 
-0.203218 -0.00321788 0.394557 
-0.00366947 -0.203669 0.316687 
-0.00366947 -0.203669 0.39455 
-0.00360232 -0.00360232 0.316687 
-0.00360232 -0.00360232 0.39455 
0.39687 0.3976 0.247653 
0.396896 0.396303 0.355958 
-0.426775 -0.411194 -0.0859779 
-0.500121 -0.400036 -0.102101 
0.439044 0.260049 -0.456922 
0.500004 0.241452 -0.456392 
0.444379 0.384738 -0.165251 
0.500033 0.397253 -0.155629 
-0.449207 -0.450466 0.323759 
-0.451706 -0.500139 0.327714 
0.366513 0.45007 -0.193721 
0.366517 0.5 -0.193702 
-0.101784 0.444706 -0.369104 
-0.0977857 0.500001 -0.34443 
0.399236 0.453888 -0.333333 
0.411131 0.5 -0.355382 
-0.214825 0.453719 -0.389651 
-0.221656 0.500004 -0.385827 
-0.203218 -0.00321788 -0.470665 
-0.203218 -0.00321788 -0.5 
0.173838 -0.0094545 -0.46172 
0.20134 0.00645488 -0.500003 
0.400427 -0.400674 -0.450019 
0.400418 -0.400675 -0.5 
-0.449968 0.149997 -0.450007 
-0.449968 0.150018 -0.5 
-0.00360232 -0.00360232 -0.470665 
-0.00360232 -0.00360232 -0.5 
0.318812 -0.159084 -0.450044 
0.318836 -0.159064 -0.5 
-0.408361 -0.0075652 -0.462853 
-0.375309 -0.00613271 -0.500006 
-0.416615 -0.405254 -0.464721 
-0.387034 -0.390613 -0.50098 
0.00592442 0.257006 -0.446239 
-0.010958 0.22375 -0.50001 
-0.15754 0.419258 -0.446612 
-0.136142 0.40614 -0.500007 
-0.0419383 0.396537 -0.463909 
-0.0541279 0.404016 -0.500007 
-0.246888 0.369124 -0.465049 
-0.255817 0.368154 -0.500006 
0.424027 0.346034 -0.4542 
0.454673 0.349848 -0.500013 
0.235335 0.352258 -0.457736 
0.223383 0.377389 -0.500002 
-0.180553 -0.366769 -0.454329 
-0.178438 -0.390766 -0.500028 
-0.0421984 -0.398601 -0.457467 
-0.0191304 -0.387071 -0.500007 
-0.301664 0.160801 -0.465044 
-0.310627 0.160212 -0.500003 
0.439044 0.260049 -0.456922 
0.399402 0.279917 -0.50001 
0.0481261 0.346779 -0.441472 
0.055511 0.347416 -0.500006 
-0.402763 0.397237 -0.470666 
-0.402763 0.397237 -0.5 
-0.203538 -0.203538 -0.470665 
-0.203538 -0.203538 -0.5 
-0.00366947 -0.203669 -0.470665 
-0.00366947 -0.203669 -0.5 
-0.170346 0.201541 -0.461962 
-0.182636 0.214073 -0.500014 
0.274698 0.0662953 -0.443486 
0.294869 0.0528654 -0.500003 
0.0313121 0.188126 -0.453426 
0.0227187 0.189619 -0.500003 
0.159355 0.210264 -0.465044 
0.174224 0.19755 -0.500001 
0.1975 0.112308 -0.455656 
0.219738 0.13488 -0.500003 
0.0378825 0.450345 -0.440885 
0.0503257 0.45217 -0.500003 
0.171413 -0.208184 -0.462986 
0.171908 -0.19443 -0.500006 
0.38519 0.0916277 -0.450038 
0.385192 0.0916152 -0.5 
0.370159 0.438837 -0.464913 
0.375509 0.445379 -0.500004 
-0.403333 -0.203333 -0.470664 
-0.403333 -0.203333 -0.5 
0.407004 -0.296861 -0.450007 
0.407002 -0.296859 -0.5 
-0.264532 -0.430902 -0.458929 
-0.260731 -0.419196 -0.500011 
0.357114 -0.0186971 -0.450007 
0.357137 -0.0187112 -0.5 
0.396963 -0.398717 0.450252 
0.396962 -0.398724 0.5 
-0.203218 -0.00321788 0.472321 
-0.203218 -0.00321788 0.5 
-0.403333 -0.203333 0.472319 
-0.403333 -0.203333 0.5 
-0.402763 0.397237 0.472315 
-0.402763 0.397237 0.5 
-0.203538 -0.203538 0.472317 
-0.203538 -0.203538 0.5 
-0.00366947 -0.203669 0.472318 
-0.00366947 -0.203669 0.5 
-0.00360232 -0.00360232 0.472317 
-0.00360232 -0.00360232 0.5 
LINES 204 612
2 0 1
2 2 3
2 4 5
2 6 7
2 8 9
2 10 11
2 12 13
2 14 15
2 16 17
2 18 19
2 20 21
2 22 23
2 24 25
2 26 27
2 28 29
2 30 31
2 32 33
2 34 35
2 36 37
2 38 39
2 40 41
2 42 43
2 44 45
2 46 47
2 48 49
2 50 51
2 52 53
2 54 55
2 56 57
2 58 59
2 60 61
2 62 63
2 64 65
2 66 67
2 68 69
2 70 71
2 72 73
2 74 75
2 76 77
2 78 79
2 80 81
2 82 83
2 84 85
2 86 87
2 88 89
2 90 91
2 92 93
2 94 95
2 96 97
2 98 99
2 100 101
2 102 103
2 104 105
2 106 107
2 108 109
2 110 111
2 112 113
2 114 115
2 116 117
2 118 119
2 120 121
2 122 123
2 124 125
2 126 127
2 128 129
2 130 131
2 132 133
2 134 135
2 136 137
2 138 139
2 140 141
2 142 143
2 144 145
2 146 147
2 148 149
2 150 151
2 152 153
2 154 155
2 156 157
2 158 159
2 160 161
2 162 163
2 164 165
2 166 167
2 168 169
2 170 171
2 172 173
2 174 175
2 176 177
2 178 179
2 180 181
2 182 183
2 184 185
2 186 187
2 188 189
2 190 191
2 192 193
2 194 195
2 196 197
2 198 199
2 200 201
2 202 203
2 204 205
2 206 207
2 208 209
2 210 211
2 212 213
2 214 215
2 216 217
2 218 219
2 220 221
2 222 223
2 224 225
2 226 227
2 228 229
2 230 231
2 232 233
2 234 235
2 236 237
2 238 239
2 240 241
2 242 243
2 244 245
2 246 247
2 248 249
2 250 251
2 252 253
2 254 255
2 256 257
2 258 259
2 260 261
2 262 263
2 264 265
2 266 267
2 268 269
2 270 271
2 272 273
2 274 275
2 276 277
2 278 279
2 280 281
2 282 283
2 284 285
2 286 287
2 288 289
2 290 291
2 292 293
2 294 295
2 296 297
2 298 299
2 300 301
2 302 303
2 304 305
2 306 307
2 308 309
2 310 311
2 312 313
2 314 315
2 316 317
2 318 319
2 320 321
2 322 323
2 324 325
2 326 327
2 328 329
2 330 331
2 332 333
2 334 335
2 336 337
2 338 339
2 340 341
2 342 343
2 344 345
2 346 347
2 348 349
2 350 351
2 352 353
2 354 355
2 356 357
2 358 359
2 360 361
2 362 363
2 364 365
2 366 367
2 368 369
2 370 371
2 372 373
2 374 375
2 376 377
2 378 379
2 380 381
2 382 383
2 384 385
2 386 387
2 388 389
2 390 391
2 392 393
2 394 395
2 396 397
2 398 399
2 400 401
2 402 403
2 404 405
2 406 407
POINT_DATA 408
SCALARS id int 1
LOOKUP_TABLE default
0
25
1
26
2
27
4
29
5
30
6
31
7
32
8
58
9
34
10
35
11
36
12
37
14
114
16
41
20
46
20
45
23
48
25
50
26
51
29
54
31
56
32
57
34
59
35
60
35
135
36
61
37
62
38
39
38
63
43
68
47
71
49
99
50
75
51
76
53
139
54
79
55
80
56
81
57
82
58
78
59
84
60
110
61
86
62
87
63
113
73
97
73
74
75
100
76
101
79
104
80
105
80
130
81
106
82
107
86
111
87
112
90
115
93
118
97
223
100
125
101
126
104
129
105
130
106
131
107
132
110
160
111
136
112
137
113
138
113
133
115
140
118
168
119
199
125
150
126
151
129
154
130
155
131
156
132
157
133
158
134
139
134
159
136
161
137
162
138
163
139
164
140
165
149
174
150
175
151
176
154
179
156
181
157
182
161
186
162
187
165
190
168
193
174
199
175
200
176
201
179
204
181
206
182
207
186
211
187
212
188
213
190
215
192
217
193
218
199
224
200
225
201
251
204
254
206
256
207
257
209
234
211
261
212
262
213
238
215
240
217
242
218
243
224
249
226
301
229
304
231
306
232
307
234
259
236
311
237
312
238
263
240
265
242
267
247
321
249
274
250
275
251
276
254
279
256
281
257
282
259
284
260
285
261
286
262
287
265
290
267
292
274
299
276
301
279
304
281
306
282
307
286
311
287
312
299
324
125
0
74
1
174
1
275
2
119
3
114
3
124
3
59
3
7
4
17
4
20
4
3
4
12
4
47
4
2
4
0
4
38
4
34
4
14
4
9
4
49
4
64
4
55
4
10
4
33
4
74
4
39
4
4
4
6
4
11
4
8
4
68
4
13
4
18
4
43
4
89
4
16
4
23
4
24
4
1
4
21
4
5
4
22
4
320
5
232
5
226
5
229
5
231
5
236
5
237
5
CELL_DATA 204
VECTORS force double
296.623 285.473 -3329.33 
0 0 -41499.3 
3.64203 0.849251 -11.7324 
0 0 -41503.5 
-0.481613 -0.323682 -2.24833 
0 0 -41501.1 
0 0 -41501.1 
-1.71077 0.662653 -47.1462 
-9.25608 -12.8795 -10.2517 
-19.2074 0.26302 -63.7096 
0 0 -41500.7 
0 0 -41500.9 
3.85965 -3.86243 -15.5988 
-0.513702 0.73791 -10.6839 
-0.0750745 -3.9555 -8.56394 
0.296588 6.76937 -17.4061 
-14.7547 -9.44092 -25.886 
172.155 66.6604 -2973.84 
0 0 -41614 
0 0 -41619.3 
0 0 -41616.5 
0 0 -41617.9 
9.28046 -20.2676 -22.5852 
-23.7958 -16.6274 -69.2735 
-11.9628 12.5024 -10.9092 
0 0 -41616.1 
0 0 -41616.3 
-4.41899 -4.22741 16.6863 
11.5865 0.275497 -89.5012 
-10.8752 17.8713 -2.95632 
-12.4037 6.2545 -21.3337 
42.3006 -6.55858 -75.6404 
114.898 22.4338 -2335.85 
0 0 -41790.1 
-3.70226 -4.17914 -7.91074 
0 0 -41794.9 
-0.700005 -11.8629 -75.6831 
0 0 -41793.1 
0 0 -41794.6 
12.7029 -3.403 -26.3304 
-0.968984 0.0591629 0.465408 
-24.2412 -46.5975 -111.031 
0 0 -41792.7 
0 0 -41792.9 
11.7162 7.49705 -66.1654 
81.6552 139.452 -187.254 
-16.4487 -70.9894 187.56 
256.112 -55.8662 -1920.47 
0 0 -42024 
0 0 -42030.1 
8.04005 -1.85856 -49.29 
-12.6839 3.81954 -10.6416 
0 0 -42026.4 
0 0 -42024.7 
0 0 -42026 
0 0 -42026.2 
21.6264 -10.3001 -68.2235 
5.10776 10.6246 -35.8069 
39.2371 78.1091 -75.2103 
571.654 -62.3886 -1093.41 
0 0 -42313.2 
0 0 -42319.9 
21.8344 0.298551 -39.5478 
0 0 -42314.6 
0 0 -42309 
17.1576 -13.4339 -37.4361 
0 0 -42314.3 
0 0 -42314.4 
-9.59617 11.1964 -26.5494 
26.1367 11.2437 -24.4089 
17.8726 11.8137 -105.185 
2.72477 25.4394 -87.9386 
-54.6866 124.197 -133.524 
191.557 -24.377 -524.639 
0 0 -42637.9 
0 0 -42642 
-3.79984 -9.6258 -19.1362 
0 0 -42639.5 
0 0 -42635 
1.60231 3.08886 -5.91687 
-6.94653 2.87911 11.0662 
2.60229 -1.48467 -8.60442 
0 0 -42639.3 
0 0 -42639.4 
-1.41868 5.8342 -13.0128 
-1.91036 -1.15615 -1.50162 
-16.8707 9.9808 -74.6859 
367.099 -285.912 -548.295 
-11.7511 -91.5376 -330.704 
0 0 -42980.8 
0 0 -42982.9 
0 0 -42981 
0 0 -42974.1 
0 0 -42980.9 
0 0 -42980.9 
3.58749 5.61817 -72.7546 
16.5528 26.6953 -78.9737 
79.9547 -22.1354 -22.0208 
-35.3141 -31.4249 -378.574 
0 0 -43321.7 
0 0 -43321.6 
0 0 -43320.5 
0 0 -43313.3 
0 0 -43320.6 
0 0 -43320.5 
-1.83883 8.01381 -12.1743 
2.81452 -6.36999 -35.3903 
-2.60048 -1.23438 -6.41872 
-0.299589 5.2249 -43.5306 
-15.7421 25.1928 -133.533 
-61.6969 61.6211 -162.655 
0 0 -43637.6 
0 0 -43634.4 
0 0 -43635.9 
0 0 -43632.7 
-3.69728 -1.12034 -150.644 
0 0 -43636.1 
0 0 -43636 
-1.16304 6.8894 -18.1128 
5.96792 -8.3735 -14.0409 
1.18982 2.56029 -15.5138 
1.39051 -16.6123 -22.1308 
-4.02408 25.0417 -92.8081 
0 0 44281.6 
0 0 44272.4 
0 0 44278.4 
0 0 44287.5 
2.23714 9.27254 -82.7463 
0 0 44279.2 
0 0 44278.8 
-2.48263 -1.7668 -10.7143 
-0.876263 -3.78887 -7.53996 
7.61276 -11.7177 -33.028 
-8.00909 -11.4889 7.39128 
16.941 -7.12046 -79.1117 
354.754 490.302 -151.686 
0 0 -43909.6 
0 0 -43903.5 
0 0 -43907.6 
0 0 -43909.6 
-0.543011 6.03427 -30.8623 
-0.326056 2.96304 -14.7211 
0 0 -43908 
0 0 -43907.8 
-3.84827 2.4763 1.71622 
15.5603 5.62776 -49.2937 
10.2572 -15.3211 -136.746 
0 0 -44125.9 
0 0 -44117.7 
0 0 -44123.3 
0 0 -44129.5 
0 0 -44123.9 
0 0 -44123.6 
-13.9237 17.2182 -95.5183 
382.029 -26.2393 -359.016 
-23.0806 -17.9584 63.2942 
-86.9768 9.22115 34.4226 
51.2788 415.703 -55.9477 
29.5256 -139.203 143.736 
0.68188 -6.4345 -0.965192 
-0.521093 -2.0312 4.12518 
9.64678 -21.9365 -10.193 
0 0 41445.5 
-5.59174 -3.86396 9.94511 
-0.273042 -3.56415 41.3584 
-9.63188e-08 8.53143e-08 13.6117 
0 0 41446 
20.4738 -8.92574 72.8518 
-6.25007 0.732475 23.1296 
-251.652 -480.624 3555.49 
-14.2369 4.88279 73.4683 
-19.9812 5.90274 27.5645 
-2.99839 1.22566 30.1904 
9.53828 3.62779 22.8759 
-60.8238 -0.877279 178.164 
0.944199 -2.5897 8.07588 
0.857465 28.4375 157.146 
-10.2208 -3.0229 34.3172 
0.586094 -0.483114 13.0551 
14.4926 -19.8637 89.6898 
-4.9482 -8.85315 26.6175 
0 0 41448.2 
0 0 41446.2 
0 0 41445.8 
10.8964 -14.2229 61.4056 
-5.27386 3.34646 13.8659 
1.55042 -0.36411 13.3145 
0.477021 -0.833715 14.1059 
1.07797 -6.82458 11.3709 
-2.15809 -0.310005 12.6569 
-0.930263 0.313491 23.7309 
13.8404 6.88146 64.4695 
3.63576 6.36897 21.9046 
0 0 41444.9 
-1.15622e-09 7.42016e-08 13.6117 
-0.875047 -3.14374 13.1871 
-0.000443612 0.00132022 13.6121 
-1.49257 -27.1695 -1180.75 
0 0 -44378.2 
0 0 -44371.5 
0 0 -44361.5 
0 0 -44367.8 
0 0 -44368.6 
0 0 -44368.2 
VECTORS moment double
0 0 0 
0 0 0 
0 0 0 
0 0 0 
0 0 0 
0 0 0 
0 0 0 
0 0 0 
0 0 0 
0 0 0 
0 0 0 
0 0 0 
0 0 0 
0 0 0 
0 0 0 
0 0 0 
0 0 0 
0 0 0 
0 0 0 
0 0 0 
0 0 0 
0 0 0 
0 0 0 
0 0 0 
0 0 0 
0 0 0 
0 0 0 
0 0 0 
0 0 0 
0 0 0 
0 0 0 
0 0 0 
0 0 0 
0 0 0 
0 0 0 
0 0 0 
0 0 0 
0 0 0 
0 0 0 
0 0 0 
0 0 0 
0 0 0 
0 0 0 
0 0 0 
0 0 0 
0 0 0 
0 0 0 
0 0 0 
0 0 0 
0 0 0 
0 0 0 
0 0 0 
0 0 0 
0 0 0 
0 0 0 
0 0 0 
0 0 0 
0 0 0 
0 0 0 
0 0 0 
0 0 0 
0 0 0 
0 0 0 
0 0 0 
0 0 0 
0 0 0 
0 0 0 
0 0 0 
0 0 0 
0 0 0 
0 0 0 
0 0 0 
0 0 0 
0 0 0 
0 0 0 
0 0 0 
0 0 0 
0 0 0 
0 0 0 
0 0 0 
0 0 0 
0 0 0 
0 0 0 
0 0 0 
0 0 0 
0 0 0 
0 0 0 
0 0 0 
0 0 0 
0 0 0 
0 0 0 
0 0 0 
0 0 0 
0 0 0 
0 0 0 
0 0 0 
0 0 0 
0 0 0 
0 0 0 
0 0 0 
0 0 0 
0 0 0 
0 0 0 
0 0 0 
0 0 0 
0 0 0 
0 0 0 
0 0 0 
0 0 0 
0 0 0 
0 0 0 
0 0 0 
0 0 0 
0 0 0 
0 0 0 
0 0 0 
0 0 0 
0 0 0 
0 0 0 
0 0 0 
0 0 0 
0 0 0 
0 0 0 
0 0 0 
0 0 0 
0 0 0 
0 0 0 
0 0 0 
0 0 0 
0 0 0 
0 0 0 
0 0 0 
0 0 0 
0 0 0 
0 0 0 
0 0 0 
0 0 0 
0 0 0 
0 0 0 
0 0 0 
0 0 0 
0 0 0 
0 0 0 
0 0 0 
0 0 0 
0 0 0 
0 0 0 
0 0 0 
0 0 0 
0 0 0 
0 0 0 
0 0 0 
0 0 0 
0 0 0 
0 0 0 
0 0 0 
0 0 0 
0 0 0 
0 0 0 
0 0 0 
0 0 0 
0 0 0 
0 0 0 
0 0 0 
0 0 0 
0 0 0 
0 0 0 
0 0 0 
0 0 0 
0 0 0 
0 0 0 
0 0 0 
0 0 0 
0 0 0 
0 0 0 
0 0 0 
0 0 0 
0 0 0 
0 0 0 
0 0 0 
0 0 0 
0 0 0 
0 0 0 
0 0 0 
0 0 0 
0 0 0 
0 0 0 
0 0 0 
0 0 0 
0 0 0 
0 0 0 
0 0 0 
0 0 0 
0 0 0 
0 0 0 
0 0 0 
0 0 0 
0 0 0 
0 0 0 
0 0 0 
0 0 0 
0 0 0 
0 0 0 
0 0 0 
SCALARS num_collisions int 1
LOOKUP_TABLE default
1 
1 
1 
1 
1 
1 
1 
1 
1 
1 
1 
1 
1 
1 
1 
1 
1 
1 
1 
1 
1 
1 
1 
1 
1 
1 
1 
1 
1 
1 
1 
1 
1 
1 
1 
1 
1 
1 
1 
1 
1 
1 
1 
1 
1 
1 
1 
1 
1 
1 
1 
1 
1 
1 
1 
1 
1 
1 
1 
1 
1 
1 
1 
1 
1 
1 
1 
1 
1 
1 
1 
1 
1 
1 
1 
1 
1 
1 
1 
1 
1 
1 
1 
1 
1 
1 
1 
1 
1 
1 
1 
1 
1 
1 
1 
1 
1 
1 
1 
1 
1 
1 
1 
1 
1 
1 
1 
1 
1 
1 
1 
1 
1 
1 
1 
1 
1 
1 
1 
1 
1 
1 
1 
1 
1 
1 
1 
1 
1 
1 
1 
1 
1 
1 
1 
1 
1 
1 
1 
1 
1 
1 
1 
1 
1 
1 
1 
1 
1 
1 
1 
1 
1 
1 
1 
1 
1 
1 
1 
1 
1 
1 
1 
1 
1 
1 
1 
1 
1 
1 
1 
1 
1 
1 
1 
1 
1 
1 
1 
1 
1 
1 
1 
1 
1 
1 
1 
1 
1 
1 
1 
1 
1 
1 
1 
1 
1 
1 
1 
1 
1 
1 
1 
1 
VECTORS pos double
-0.390129 -0.407809 -0.426853 
-0.403333 -0.203333 -0.431006 
-0.382027 -0.000862045 -0.424184 
-0.402763 0.397237 -0.431009 
-0.294142 -0.419822 -0.438087 
-0.203538 -0.203538 -0.431008 
-0.203218 -0.00321788 -0.431008 
-0.174293 0.20048 -0.4261 
-0.202161 0.40077 -0.464272 
-0.0408374 -0.399119 -0.420073 
-0.00366947 -0.203669 -0.431007 
-0.00360232 -0.00360232 -0.431007 
-0.078232 0.41356 -0.433181 
0.165749 -0.17567 -0.424769 
0.400751 -0.375152 -0.407027 
0.399018 -0.425335 -0.406551 
0.417592 0.113342 -0.418783 
-0.389642 -0.408266 -0.354295 
-0.403333 -0.203333 -0.35173 
-0.402763 0.397237 -0.351734 
-0.203538 -0.203538 -0.351732 
-0.203218 -0.00321788 -0.351733 
-0.195724 0.437652 -0.427484 
-0.0121752 -0.415132 -0.37438 
-0.0667941 -0.367072 -0.339579 
-0.00366947 -0.203669 -0.351732 
-0.00360232 -0.00360232 -0.351732 
0.0362311 0.304089 -0.426091 
-0.0177133 0.244838 -0.400857 
0.236938 0.100129 -0.44206 
0.360049 -0.181115 -0.432323 
0.422609 0.340466 -0.401879 
-0.398352 -0.413008 -0.279557 
-0.403333 -0.203333 -0.272525 
-0.160734 0.321259 -0.344591 
-0.402763 0.397237 -0.272532 
-0.172763 -0.39264 -0.405232 
-0.203538 -0.203538 -0.272528 
-0.203218 -0.00321788 -0.27253 
-0.190321 0.214444 -0.344693 
-0.24827 0.434985 -0.377597 
0.0260401 -0.405005 -0.315442 
-0.00366947 -0.203669 -0.272527 
-0.00360232 -0.00360232 -0.272528 
-0.0170795 0.236039 -0.338679 
0.428203 0.200383 -0.331214 
0.442138 0.245104 -0.410003 
-0.404417 -0.41437 -0.197858 
-0.403333 -0.203333 -0.193422 
-0.402763 0.397237 -0.193431 
-0.194066 -0.394101 -0.372725 
-0.130004 -0.44497 -0.328679 
-0.203538 -0.203538 -0.193427 
-0.203218 -0.00321788 -0.193429 
-0.00366947 -0.203669 -0.193426 
-0.00360232 -0.00360232 -0.193427 
0.221113 -0.394936 -0.190122 
0.204694 0.186568 -0.389479 
0.394813 0.152123 -0.25473 
-0.407808 -0.408479 -0.12053 
-0.403333 -0.203333 -0.114453 
-0.402763 0.397237 -0.114465 
-0.205957 -0.40967 -0.301794 
-0.203538 -0.203538 -0.114459 
-0.203218 -0.00321788 -0.114461 
0.0132698 -0.3842 -0.227475 
-0.00366947 -0.203669 -0.114458 
-0.00360232 -0.00360232 -0.114458 
-0.0069788 0.231465 -0.269986 
-0.0721742 0.205634 -0.259352 
0.201816 -0.39427 -0.121067 
0.221841 0.188138 -0.322169 
0.372861 0.449724 -0.144147 
-0.392485 -0.417739 -0.0445136 
-0.403333 -0.203333 -0.0356443 
-0.402763 0.397237 -0.0356586 
-0.142773 -0.399293 -0.240966 
-0.203538 -0.203538 -0.0356512 
-0.203218 -0.00321788 -0.0356515 
-0.134608 0.22305 -0.198839 
-0.16403 0.358912 -0.338284 
-0.209064 0.378164 -0.27059 
-0.00366947 -0.203669 -0.0356498 
-0.00360232 -0.00360232 -0.0356505 
-0.00408276 0.212917 -0.19481 
-0.0672238 0.350666 -0.334544 
0.202109 -0.41246 -0.0321452 
0.409579 0.394685 -0.233116 
-0.379208 -0.40694 0.0349776 
-0.403333 -0.203333 0.0429823 
-0.402763 0.397237 0.0429663 
-0.203538 -0.203538 0.0429754 
-0.203218 -0.00321788 0.042979 
-0.00366947 -0.203669 0.0429769 
-0.00360232 -0.00360232 0.0429762 
0.187849 -0.418583 0.0339874 
0.20467 0.16743 -0.250898 
0.433325 0.404162 -0.129496 
-0.381915 -0.382473 0.111169 
-0.403333 -0.203333 0.121417 
-0.402763 0.397237 0.121401 
-0.203538 -0.203538 0.121411 
-0.203218 -0.00321788 0.121418 
-0.00366947 -0.203669 0.121412 
-0.00360232 -0.00360232 0.121412 
-0.0165652 0.225581 -0.0521839 
0.200121 -0.421594 0.110761 
0.226368 -0.0169028 0.104999 
0.20343 0.155622 -0.176274 
0.396769 0.411635 -0.0730054 
-0.3679 -0.382331 0.179551 
-0.403333 -0.203333 0.199663 
-0.402763 0.397237 0.199647 
-0.203538 -0.203538 0.199657 
-0.203218 -0.00321788 0.199667 
-0.199619 0.402364 -0.0394158 
-0.00366947 -0.203669 0.199658 
-0.00360232 -0.00360232 0.199658 
-0.0207738 0.174733 0.0317201 
0.215062 -0.409591 0.184737 
0.209211 -0.00969336 0.182225 
0.190922 0.199265 -0.113142 
0.407099 0.409052 0.000723631 
-0.403333 -0.203333 0.433455 
-0.402763 0.397237 0.433449 
-0.203538 -0.203538 0.433453 
-0.203218 -0.00321788 0.433458 
-0.201873 0.410288 0.0384243 
-0.00366947 -0.203669 0.433453 
-0.00360232 -0.00360232 0.433453 
0.00985985 0.187308 0.109401 
0.199516 -0.387193 0.253833 
0.203509 -0.00825861 0.259898 
0.385898 -0.131511 0.444921 
0.398403 0.37747 0.0902422 
-0.430936 -0.419328 0.317258 
-0.403333 -0.203333 0.277733 
-0.402763 0.397237 0.277719 
-0.203538 -0.203538 0.277728 
-0.203218 -0.00321788 0.277738 
-0.205063 0.408203 0.112913 
0.000354324 -0.405351 0.168799 
-0.00366947 -0.203669 0.277729 
-0.00360232 -0.00360232 0.277729 
0.186945 -0.379235 0.32391 
0.184295 0.000558058 0.332535 
0.386229 0.404682 0.192295 
-0.403333 -0.203333 0.355653 
-0.402763 0.397237 0.355643 
-0.203538 -0.203538 0.355649 
-0.203218 -0.00321788 0.355657 
-0.00366947 -0.203669 0.35565 
-0.00360232 -0.00360232 0.355649 
0.390752 0.396283 0.29822 
-0.500121 -0.400036 -0.102101 
0.500004 0.241452 -0.456392 
0.500033 0.397253 -0.155629 
-0.451706 -0.500139 0.327714 
0.366517 0.5 -0.193702 
-0.0977857 0.500001 -0.34443 
0.411131 0.5 -0.355382 
-0.221656 0.500004 -0.385827 
-0.203218 -0.00321788 -0.5 
0.20134 0.00645488 -0.500003 
0.400418 -0.400675 -0.5 
-0.449968 0.150018 -0.5 
-0.00360232 -0.00360232 -0.5 
0.318836 -0.159064 -0.5 
-0.375309 -0.00613271 -0.500006 
-0.387034 -0.390613 -0.50098 
-0.010958 0.22375 -0.50001 
-0.136142 0.40614 -0.500007 
-0.0541279 0.404016 -0.500007 
-0.255817 0.368154 -0.500006 
0.454673 0.349848 -0.500013 
0.223383 0.377389 -0.500002 
-0.178438 -0.390766 -0.500028 
-0.0191304 -0.387071 -0.500007 
-0.310627 0.160212 -0.500003 
0.399402 0.279917 -0.50001 
0.055511 0.347416 -0.500006 
-0.402763 0.397237 -0.5 
-0.203538 -0.203538 -0.5 
-0.00366947 -0.203669 -0.5 
-0.182636 0.214073 -0.500014 
0.294869 0.0528654 -0.500003 
0.0227187 0.189619 -0.500003 
0.174224 0.19755 -0.500001 
0.219738 0.13488 -0.500003 
0.0503257 0.45217 -0.500003 
0.171908 -0.19443 -0.500006 
0.385192 0.0916152 -0.5 
0.375509 0.445379 -0.500004 
-0.403333 -0.203333 -0.5 
0.407002 -0.296859 -0.5 
-0.260731 -0.419196 -0.500011 
0.357137 -0.0187112 -0.5 
0.396962 -0.398724 0.5 
-0.203218 -0.00321788 0.5 
-0.403333 -0.203333 0.5 
-0.402763 0.397237 0.5 
-0.203538 -0.203538 0.5 
-0.00366947 -0.203669 0.5 
-0.00360232 -0.00360232 0.5 
VECTORS dir_n double
-0.0236842 0.0021827 -0.999717 
2.40968e-20 0 -1 
0.0188445 -0.0666554 -0.997598 
2.40944e-20 0 -1 
0.591163 -0.235535 -0.771394 
2.40957e-20 0 -1 
2.40957e-20 0 -1 
0.26284 0.0823546 -0.961318 
-0.728749 -0.63745 -0.250164 
0.12024 -0.120138 -0.985449 
2.4096e-20 0 -1 
2.40959e-20 0 -1 
0.474398 -0.0627906 -0.878068 
0.031192 -0.117865 -0.99254 
-0.00666652 -0.510476 -0.859866 
0.0279968 0.493249 -0.869437 
-0.648174 -0.434655 -0.625257 
0.213217 0.137751 -0.967245 
2.40304e-20 0 -1 
2.40273e-20 0 -1 
2.40289e-20 0 -1 
2.40281e-20 0 -1 
0.597194 -0.618037 -0.511263 
-0.839995 0.248509 -0.482341 
-0.136149 -0.00110578 -0.990688 
2.40292e-20 0 -1 
2.4029e-20 0 -1 
-0.571056 -0.798356 -0.19111 
0.269503 0.0425615 -0.962058 
-0.846794 0.176223 -0.501882 
-0.824456 0.44112 -0.35452 
-0.227282 -0.0795903 -0.970571 
0.428215 0.156336 -0.890051 
2.39291e-20 0 -1 
-0.668103 -0.472046 -0.575162 
2.39264e-20 0 -1 
-0.0907775 0.497157 -0.862899 
2.39274e-20 0 -1 
2.39265e-20 0 -1 
0.597093 -0.0503995 -0.800587 
-0.878552 -0.154503 0.451968 
-0.0153158 -0.226116 -0.97398 
2.39276e-20 0 -1 
2.39275e-20 0 -1 
-0.0978769 0.458593 -0.88324 
0.41082 0.677628 -0.609957 
0.131691 -0.217726 0.967085 
0.146803 0.08488 -0.985517 
2.37959e-20 0 -1 
2.37925e-20 0 -1 
0.911737 0.0034005 -0.410761 
-0.0341042 0.0641785 -0.997356 
2.37946e-20 0 -1 
2.37955e-20 0 -1 
2.37948e-20 0 -1 
2.37947e-20 0 -1 