# vtk DataFile Version 2.0
Generated by NetDEM
ASCII 
DATASET POLYDATA
POINTS 702 double
-0.418435 -0.406624 -0.463581 
-0.427178 -0.405465 -0.392277 
-0.413371 -0.00596833 -0.465063 
-0.410063 -0.0178564 -0.384357 
-0.449305 0.114189 -0.450019 
-0.449386 0.176372 -0.371712 
-0.449305 0.114189 -0.450019 
-0.376961 0.0724876 -0.395003 
-0.449501 0.348722 -0.450038 
-0.357179 0.372844 -0.40587 
-0.449501 0.348722 -0.450038 
-0.440534 0.275365 -0.382717 
-0.271464 -0.429385 -0.45907 
-0.260517 -0.431194 -0.358932 
-0.307991 -0.206975 -0.450011 
-0.316519 -0.206088 -0.350383 
-0.196198 -0.00888853 -0.450007 
-0.175972 0.0788122 -0.450273 
-0.173264 0.171778 -0.463812 
-0.175972 0.0788122 -0.450273 
-0.25271 0.367197 -0.4634 
-0.230399 0.325182 -0.394203 
-0.0546628 -0.398204 -0.461234 
-0.0863199 -0.388718 -0.394866 
-0.143864 -0.136066 -0.450023 
-0.224468 -0.174867 -0.405334 
-0.143864 -0.136066 -0.450023 
-0.131227 -0.0569015 -0.390267 
-0.0560229 -0.0869005 -0.450015 
0.0506789 -0.091886 -0.450015 
-0.0560229 -0.0869005 -0.450015 
-0.00599451 -0.0229222 -0.3932 
0.0356805 0.178978 -0.452331 
0.026036 0.2596 -0.449857 
0.0356805 0.178978 -0.452331 
-0.0560384 0.126464 -0.442439 
0.0356805 0.178978 -0.452331 
0.111245 0.136971 -0.398674 
-0.0311748 0.319178 -0.441377 
-0.00614764 0.41453 -0.36777 
0.192959 -0.400826 -0.462919 
0.205182 -0.412657 -0.389365 
0.168992 -0.210184 -0.463125 
0.165648 -0.205429 -0.389762 
0.17302 -0.00803685 -0.462842 
0.174733 0.0123956 -0.385214 
0.160302 0.209579 -0.465051 
0.118189 0.301163 -0.425152 
0.303148 0.404196 -0.412573 
0.371052 0.438844 -0.46506 
0.303148 0.404196 -0.412573 
0.330824 0.308112 -0.412646 
0.303148 0.404196 -0.412573 
0.287868 0.375034 -0.318169 
0.45001 -0.407577 -0.450034 
0.437706 -0.355658 -0.365482 
0.45001 -0.407577 -0.450034 
0.39674 -0.450024 -0.376852 
0.431222 -0.302626 -0.450009 
0.437706 -0.355658 -0.365482 
0.338435 -0.0117865 -0.450009 
0.251693 -0.0611841 -0.444047 
0.380838 0.0911321 -0.450028 
0.323451 0.0638369 -0.372825 
0.380838 0.0911321 -0.450028 
0.450007 0.138946 -0.39592 
0.371052 0.438844 -0.46506 
0.397253 0.449826 -0.369318 
-0.427178 -0.405465 -0.392277 
-0.329304 -0.409112 -0.398805 
-0.427178 -0.405465 -0.392277 
-0.434872 -0.439546 -0.326406 
-0.450074 -0.236807 -0.337226 
-0.441638 -0.275072 -0.245298 
-0.410063 -0.0178564 -0.384357 
-0.451053 -0.0384926 -0.313795 
-0.410063 -0.0178564 -0.384357 
-0.317104 -0.0202855 -0.357202 
-0.449386 0.176372 -0.371712 
-0.440534 0.275365 -0.382717 
-0.329304 -0.409112 -0.398805 
-0.260517 -0.431194 -0.358932 
-0.310109 0.155445 -0.462291 
-0.28225 0.104565 -0.394201 
-0.14522 0.402287 -0.446692 
-0.144475 0.442263 -0.332198 
-0.14522 0.402287 -0.446692 
-0.110414 0.31394 -0.397307 
-0.0863199 -0.388718 -0.394866 
-0.101851 -0.304795 -0.372437 
-0.0863199 -0.388718 -0.394866 
-0.00911312 -0.339638 -0.330925 
0.31867 -0.238029 -0.0979485 
0.298878 -0.32313 -0.0493166 
0.31867 -0.238029 -0.0979485 
0.304402 -0.164186 -0.166072 
-0.0313065 -0.0150741 -0.301551 
-0.00599451 -0.0229222 -0.3932 
-0.0313065 -0.0150741 -0.301551 
0.00325268 -0.0162213 -0.20773 
0.026036 0.2596 -0.449857 
-0.0363142 0.223281 -0.383553 
0.118189 0.301163 -0.425152 
0.065542 0.396259 -0.408266 
0.205182 -0.412657 -0.389365 
0.204862 -0.435167 -0.317532 
0.205182 -0.412657 -0.389365 
0.293947 -0.449968 -0.380304 
0.165648 -0.205429 -0.389762 
0.212666 -0.200513 -0.305963 
0.165648 -0.205429 -0.389762 
0.161072 -0.308662 -0.377148 
0.174733 0.0123956 -0.385214 
0.162606 0.0549029 -0.328463 
0.196038 0.112264 -0.45633 
0.26062 0.176782 -0.445255 
0.196038 0.112264 -0.45633 
0.111245 0.136971 -0.398674 
0.287868 0.375034 -0.318169 
0.201466 0.309635 -0.333672 
0.287868 0.375034 -0.318169 
0.249085 0.449988 -0.264618 
0.39674 -0.450024 -0.376852 
0.45 -0.448188 -0.292239 
0.39674 -0.450024 -0.376852 
0.345907 -0.412204 -0.299508 
0.450007 0.138946 -0.39592 
0.450009 0.233896 -0.364598 
0.450007 0.138946 -0.39592 
0.449969 0.0547374 -0.341986 
0.425165 0.339656 -0.456263 
0.438039 0.254986 -0.459982 
0.425165 0.339656 -0.456263 
0.430638 0.367015 -0.376004 
-0.434872 -0.439546 -0.326406 
-0.435069 -0.452602 -0.243708 
-0.316519 -0.206088 -0.350383 
-0.300653 -0.293141 -0.287134 
-0.317104 -0.0202855 -0.357202 
-0.241068 -0.00375402 -0.350956 
-0.317104 -0.0202855 -0.357202 
-0.302705 -0.0397014 -0.26294 
-0.290952 0.266292 -0.450024 
-0.327219 0.233635 -0.362751 
-0.440534 0.275365 -0.382717 
-0.422523 0.259977 -0.285579 
-0.440534 0.275365 -0.382717 
-0.422979 0.241968 -0.464008 
-0.182265 -0.372827 -0.451847 
-0.161103 -0.446661 -0.39035 
0.204303 -0.327734 -0.213471 
0.256772 -0.296916 -0.278149 
0.204303 -0.327734 -0.213471 
0.178533 -0.423255 -0.200714 
-0.235659 -0.0707543 -0.145197 
-0.261935 -0.0984052 -0.0531944 
-0.348311 0.334937 -0.330576 
-0.357179 0.372844 -0.40587 
0.0443179 -0.437756 -0.449604 
0.0969756 -0.451945 -0.354354 
0.210781 -0.284699 -0.0926961 
0.297397 -0.326894 -0.137312 
0.212332 0.0701504 -0.186795 
0.203079 0.14085 -0.252952 
-0.0363142 0.223281 -0.383553 
0.00701097 0.293674 -0.335266 
-0.0363142 0.223281 -0.383553 
-0.108099 0.275778 -0.31288 
0.255401 0.331226 -0.463893 
0.330824 0.308112 -0.412646 
0.255401 0.331226 -0.463893 
0.206081 0.38453 -0.393813 
0.204862 -0.435167 -0.317532 
0.263457 -0.440293 -0.235848 
0.0506789 -0.091886 -0.450015 
0.133696 -0.0987257 -0.397497 
0.0506789 -0.091886 -0.450015 
0.0153833 -0.12036 -0.345317 
0.162606 0.0549029 -0.328463 
0.126819 0.0634848 -0.265485 
0.273817 0.0664967 -0.443846 
0.323451 0.0638369 -0.372825 
0.111245 0.136971 -0.398674 
0.0507174 0.118254 -0.325823 
0.378854 -0.216623 -0.450048 
0.450026 -0.207287 -0.380466 
0.378854 -0.216623 -0.450048 
0.336523 -0.176489 -0.368869 
0.381864 -0.107331 -0.450048 
0.349728 -0.0777444 -0.360104 
0.381864 -0.107331 -0.450048 
0.450008 -0.105732 -0.376901 
0.450009 0.233896 -0.364598 
0.438039 0.254986 -0.459982 
-0.435069 -0.452602 -0.243708 
-0.391189 -0.439044 -0.168068 
-0.175616 -0.170547 -0.298768 
-0.191883 -0.253299 -0.352504 
-0.241068 -0.00375402 -0.350956 
-0.192683 0.0778951 -0.332999 
-0.241068 -0.00375402 -0.350956 
-0.288319 0.0827096 -0.287429 
-0.28225 0.104565 -0.394201 
-0.376961 0.0724876 -0.395003 
-0.357694 0.144731 -0.328593 
-0.327219 0.233635 -0.362751 
-0.161103 -0.446661 -0.39035 
-0.161783 -0.379407 -0.328016 
-0.161103 -0.446661 -0.39035 
-0.260517 -0.431194 -0.358932 
-0.131227 -0.0569015 -0.390267 
-0.164543 -0.0710745 -0.297082 
-0.244917 0.0481531 -0.204137 
-0.165047 0.114473 -0.239714 
-0.0560384 0.126464 -0.442439 
-0.134804 0.1452 -0.391071 
-0.357179 0.372844 -0.40587 
-0.314397 0.43734 -0.343799 
0.0969756 -0.451945 -0.354354 
0.01216 -0.432818 -0.349603 
0.0969756 -0.451945 -0.354354 
0.0892787 -0.430817 -0.26384 
-0.191883 -0.253299 -0.352504 
-0.101851 -0.304795 -0.372437 
0.0210062 0.0477264 -0.450078 
-0.00599451 -0.0229222 -0.3932 
0.0210062 0.0477264 -0.450078 
0.0319145 0.043003 -0.353995 
0.065542 0.396259 -0.408266 
-0.00186262 0.438619 -0.465051 
0.065542 0.396259 -0.408266 
-0.00614764 0.41453 -0.36777 
0.161072 -0.308662 -0.377148 
0.259748 -0.321401 -0.348273 
0.126819 0.0634848 -0.265485 
0.0434993 0.071887 -0.252514 
0.126819 0.0634848 -0.265485 
0.111947 -0.0199604 -0.19994 
0.26062 0.176782 -0.445255 
0.236822 0.231615 -0.376311 
0.356885 -0.31516 -0.322555 
0.259748 -0.321401 -0.348273 
0.356885 -0.31516 -0.322555 
0.392064 -0.224136 -0.300733 
0.450008 -0.105732 -0.376901 
0.450011 -0.144009 -0.284541 
0.450008 -0.105732 -0.376901 
0.437738 -0.0373459 -0.304998 
0.330824 0.308112 -0.412646 
0.330584 0.209094 -0.398689 
0.430638 0.367015 -0.376004 
0.398834 0.298712 -0.308194 
0.430638 0.367015 -0.376004 
0.43811 0.39841 -0.293563 
-0.391189 -0.439044 -0.168068 
-0.46123 -0.452296 -0.11846 
-0.391189 -0.439044 -0.168068 
-0.37378 -0.364843 -0.11206 
-0.302705 -0.0397014 -0.26294 
-0.35869 0.00882826 -0.218128 
-0.376961 0.0724876 -0.395003 
-0.443765 0.0894326 -0.322549 
-0.0826286 -0.129092 -0.327539 
0.0153833 -0.12036 -0.345317 
0.359755 -0.213989 -0.009794 
0.449399 -0.196344 -0.0504403 
0.0319145 0.043003 -0.353995 
0.0507174 0.118254 -0.325823 
0.304129 -0.386001 -0.203637 
0.297397 -0.326894 -0.137312 
0.304129 -0.386001 -0.203637 
0.345907 -0.412204 -0.299508 
0.304129 -0.386001 -0.203637 
0.268585 -0.425167 -0.117627 
0.259748 -0.321401 -0.348273 
0.256772 -0.296916 -0.278149 
0.0434993 0.071887 -0.252514 
0.0507174 0.118254 -0.325823 
0.0434993 0.071887 -0.252514 
0.00363325 0.112384 -0.182402 
0.236822 0.231615 -0.376311 
0.226621 0.183153 -0.316236 
0.348933 0.450015 -0.259291 
0.249085 0.449988 -0.264618 
0.348933 0.450015 -0.259291 
0.381893 0.427163 -0.183134 
-0.46123 -0.452296 -0.11846 
-0.443707 -0.456771 0.005545 
-0.314397 0.43734 -0.343799 
-0.381296 0.450002 -0.270573 
-0.314397 0.43734 -0.343799 
-0.235781 0.438554 -0.282023 
-0.161783 -0.379407 -0.328016 
-0.043125 -0.393307 -0.275249 
-0.0916169 -0.232299 -0.32335 
-0.101851 -0.304795 -0.372437 
-0.134804 0.1452 -0.391071 
-0.192683 0.0778951 -0.332999 
-0.230399 0.325182 -0.394203 
-0.167352 0.354117 -0.321763 
-0.230399 0.325182 -0.394203 
-0.207968 0.274454 -0.325834 
0.450002 0.0504013 -0.150215 
0.376398 0.0147147 -0.0927043 
0.450002 0.0504013 -0.150215 
0.446692 0.0806379 -0.245467 
0.178533 -0.423255 -0.200714 
0.0892787 -0.430817 -0.26384 
0.237917 -0.142653 -0.385979 
0.249308 -0.0687739 -0.33881 
0.237917 -0.142653 -0.385979 
0.336523 -0.176489 -0.368869 
0.237917 -0.142653 -0.385979 
0.133696 -0.0987257 -0.397497 
0.237917 -0.142653 -0.385979 
0.212666 -0.200513 -0.305963 
0.111947 -0.0199604 -0.19994 
0.138168 -0.0293876 -0.108881 
0.206081 0.38453 -0.393813 
0.145754 0.450011 -0.348313 
0.336523 -0.176489 -0.368869 
0.392064 -0.224136 -0.300733 
0.449969 0.0547374 -0.341986 
0.437738 -0.0373459 -0.304998 
0.449969 0.0547374 -0.341986 
0.446692 0.0806379 -0.245467 
-0.443707 -0.456771 0.005545 
-0.428354 -0.398993 0.103355 
[...]
POINT_DATA 702
SCALARS id int 1
LOOKUP_TABLE default
0
25
2
27
3
28
3
103
4
84
4
54
5
105
6
51
7
58
8
58
9
134
10
35
11
31
11
81
12
66
12
108
13
38
13
83
13
69
14
189
15
40
16
41
17
42
18
39
19
24
19
98
19
44
20
46
20
45
21
46
22
147
23
172
23
48
24
124
25
30
25
50
26
226
27
127
27
52
28
54
30
105
33
78
34
184
34
139
35
135
35
160
36
136
36
192
37
108
37
312
38
63
39
89
40
65
40
70
41
216
41
91
42
67
43
93
43
69
44
143
44
194
45
145
45
120
48
73
48
148
49
74
49
99
50
75
51
250
52
77
52
102
53
154
54
179
54
109
55
80
56
241
56
140
57
356
59
84
60
85
61
240
62
193
63
164
63
158
64
98
64
144
65
90
66
166
66
112
67
92
68
172
69
138
71
121
71
146
72
171
72
96
73
74
75
100
76
87
77
203
77
307
78
103
79
154
80
130
80
105
81
162
82
208
83
133
84
129
85
185
85
165
87
135
88
108
88
113
89
114
89
189
91
116
92
117
92
142
93
118
95
116
95
170
96
196
96
222
98
123
99
173
99
149
100
125
100
101
102
177
103
178
106
112
111
246
113
138
115
240
115
120
115
215
116
241
117
138
117
238
118
168
119
194
119
199
125
150
129
204
129
282
130
210
131
135
133
203
134
209
134
153
137
372
137
272
140
165
141
322
141
146
141
166
141
216
142
292
144
169
146
170
148
222
148
272
150
350
153
283
153
158
153
253
156
285
158
188
158
183
160
210
164
188
167
322
168
193
168
198
169
214
170
221
170
271
171
297
172
197
173
198
174
199
175
275
176
277
177
301
179
279
179
201
183
208
183
213
186
312
186
336
188
288
189
239
192
271
192
217
192
266
193
268
194
344
195
220
195
221
196
271
197
297
199
224
202
257
202
253
204
254
209
234
210
235
212
238
216
341
217
242
218
243
220
245
221
296
222
347
224
249
228
404
228
352
234
258
234
288
235
260
235
281
239
264
244
344
244
444
245
345
245
265
246
296
249
274
254
304
259
282
259
333
260
285
262
344
262
289
267
322
268
368
273
298
273
348
274
324
275
302
276
281
277
375
278
327
285
310
285
340
287
338
288
289
289
314
292
317
314
339
315
340
315
435
316
370
317
437
318
374
318
323
323
348
323
398
324
424
325
455
328
329
337
388
339
364
350
400
364
469
387
442
397
398
399
448
400
425
404
429
408
438
425
450
431
458
444
469
150
0
278
0
26
0
304
0
125
0
73
1
20
1
261
1
86
1
121
1
195
1
137
1
145
1
296
1
345
1
196
1
48
1
245
2
175
2
156
2
75
2
45
2
280
2
169
3
204
3
94
3
274
3
239
3
194
3
119
3
53
4
17
4
122
4
49
4
55
4
58
4
0
4
74
4
88
4
22
4
10
4
64
4
114
4
16
4
24
4
2
4
20
4
72
4
109
4
12
4
8
4
5
4
15
4
38
4
66
4
18
4
71
4
9
4
60
4
21
4
23
4
94
4
68
4
33
4
11
4
29
4
14
4
3
4
47
4
13
4
43
4
1
4
34
4
6
4
7
4
4
4
CELL_DATA 351
VECTORS force double
4.12183 37.1252 -185.912 
-24.0843 -2.64172 -81.7485 
-15.3803 -279.611 -76.8615 
0.176451 -83.6969 -44.5198 
-69.3367 -156.058 -108.295 
-6.3217 -719.822 -70.5186 
-13.4905 -9.27226 -14.1883 
-0.0200929 1.18842 -11.5509 
40.5317 -31.2207 1.79303 
0.572164 14.2629 -6.03899 
103.882 -40.3421 260.412 
-34.7096 -40.4591 -122.594 
-3.18079 -5.31863 -1.97404 
9.27406 -18.1996 -56.32 
-7.70813 -23.1102 9.93241 
-21.9029 -4.25812 -21.6831 
23.4711 70.2041 -183.326 
261.068 -48.1697 -224.013 
202.467 111.915 -492.755 
412.171 -99.4333 -215.017 
0.330301 6.74865 -44.8815 
-19.0598 -2.18438 -80.2762 
12.2001 -10.9943 -44.1962 
-4.63013 -15.0965 -7.99034 
-36.5941 6.41186 -26.4396 
-25.3191 -207.544 -353.795 
-25.5488 -602.051 -340.998 
-543.083 538.582 -13.5988 
-460.61 492.225 -15.9293 
-258.317 324.473 116.173 
1.68387 0.916074 -3.74107 
-179.396 -102.871 -86.9524 
-309.384 -201.407 21.03 
11.0072 0.766837 -9.85212 
-10.5411 0.589101 -4.2816 
-4.62665 39.2171 -155.487 
-116.871 39.0738 -85.0721 
6.03232 -1.69688 -15.8937 
-31.6541 -7.22963 -45.1345 
36.4676 -193.884 1080.43 
-16.3977 9.722 3.49154 
0.22276 11.4326 -16.4367 
1.05191 0.289174 -1.54646 
0.424032 1.05 -1.51987 
1.04264 -16.013 -24.1552 
-25.211 -18.2129 -76.9624 
1.57117 12.485 -9.40453 
-0.10712 -20.2061 29.8082 
-3.11602 6.71273 13.5012 
-4.8944 7.37348 -19.9143 
-16.0115 56.1179 105.101 
-31.5723 -36.4073 -8.67014 
0.185906 3.18921 -22.8765 
-0.819917 1.36502 -7.44681 
-98.7949 64.9081 163.106 
-15.1437 44.6543 23.6616 
41.8979 -7.93821 -90.1318 
173.566 -75.4758 -567.227 
411.948 200.333 -527.783 
-102.292 1248.87 513.606 
696.677 1157.91 556.621 
205.156 -333.922 15.7765 
259.808 -243.148 -77.3508 
-54.5316 666.877 -443.652 
330.377 617.284 -176.451 
15.979 -42.3397 293.688 
15.7292 32.9159 8.9741 
11.4527 27.6514 -144.573 
-1.76604 30.9208 -16.5346 
-24.4514 -20.7082 -13.3373 
-0.568571 1.07673 -29.6964 
6.74777 2.10832 -0.296693 
-28.1744 -419.01 -682.596 
-46.6183 753.66 -732.256 
-13.694 10.6861 -96.4611 
3.80843 -3.763 11.7596 
4.23359 4.84635 -2.45459 
447.306 455.82 -2449.17 
-78.1268 -91.3714 20.5683 
1.21238 -8.58298 -72.1897 
-13.1986 14.121 11.9758 
5.36791 12.8844 -5.23921 
11.9712 1.55733 -72.1633 
211.525 -9.67274 -52.3755 
-4.26171 -185.778 -159.799 
49.224 -51.8361 -32.3791 
-3.23753 0.521691 -7.89595 
-54.3965 42.111 -68.2978 
-3.67474 -21.2536 -53.1233 
-110.365 30.2252 69.3878 
-99.6194 -52.7483 0.368271 
-156.659 -180.777 541.015 
-53.6196 -1.94181 -26.3738 
22.9533 -14.4227 -54.6599 
68.24 12.8242 -208.539 
-145.852 31.1552 -620.617 
170.643 -578.026 243.117 
3.09441 5.99506 -65.8044 
-0.137872 -0.1592 -0.175301 
-16.3185 -7.06095 -3.17945 
-5.32083 -9.10838 -7.36796 
-5.87494 15.3687 -4.77985 
-2.51712 -5.63778 3.50993 
-45.246 -7.86413 -71.2518 
39.5559 17.4754 -3.8094 
12.262 -11.1944 -62.5743 
-5.03946 4.08731 2.7106 
-156.58 -30.7947 33.5678 
168.763 25.0475 -113.214 
4.96922 -1.37471 -14.1831 
-21.262 -9.14074 -41.5936 
-0.29448 1.63807 0.206789 
-41.5089 -76.1404 -101.173 
-152.644 -239.919 -324.593 
89.7917 58.9794 123.263 
225.004 102.442 102.006 
-30.003 -2.52071 -35.3022 
173.652 -170.366 -249.686 
84.3136 -47.762 -106.264 
54.3432 -127.926 -54.5253 
-41.5106 -1.17378 12.8715 
-17.9109 9.74278 6.32962 
1031.8 -418.363 35.9734 
830.131 -512.833 217.853 
-47.5648 83.286 -43.0131 
6.96979 6.21929 -24.5794 
3.70447 -8.52855 -25.1891 
20.492 -1.12658 -39.6309 
-6.87026 -5.94457 -11.795 
23.1953 -15.972 -37.3034 
10.4156 3.46058 1.27377 
24.0293 3.338 -2.70205 
-2.55193 -1.58984 3.98494 
90.8511 19.5023 617.05 
15.7078 -21.2384 -20.746 
-15.9514 4.51889 39.1496 
22.1507 12.8361 -36.7841 
44.031 3.84967 -25.2813 
-63.0989 177.154 720.998 
-55.9473 70.8829 353.836 
27.4382 203.652 180.904 
229.873 1303.48 504.524 
118.126 315.979 57.4799 
-34.7589 -12.4002 -81.3973 
-7.77612 24.8017 26.9772 
-42.9083 -42.8406 -60.5956 
-28.8319 -1.77046 -65.4447 
0.00755383 9.56888 5.27877 
28.574 15.396 -13.7943 
-50.345 -1.97337 -177.26 
-152.666 154.426 -557.715 
5.87083 4.37187 -12.3023 
-4.61244 14.3772 56.6332 
14.3751 6.17843 20.818 
-102.942 127.693 -103.571 
-147.744 113.772 105.568 
-70.9886 81.2667 -127.715 
-237.301 268.609 268.614 
-13.3049 -11.3997 -40.8045 
10.06 -8.81726 -20.5331 
17.8997 16.1617 -32.6943 
165.809 -461.985 -92.2764 
-11.2807 -349.388 1.59108 
4.45187 1.28958 -57.956 
411.093 -346.442 487.948 
374.123 -275.806 -71.1475 
472.539 -405.839 157.528 
11.7621 -13.6119 7.78784 
-87.0314 25.2942 -43.668 
-255.507 107.12 -18.614 
-12.3911 -2.94727 -50.9734 
10.705 14.6747 -4.39182 
-18.1525 -14.2829 1.99385 
50.7624 30.896 -122.179 
-9.43056 -66.7599 -161.555 
9.1668 8.19632 -13.5043 
-21.9696 -2.95255 -7.40738 
-88.9354 -40.3047 48.1882 
-8.03949 12.855 29.0103 
-1.53307 -0.359874 34.8009 
0.706986 4.02546 7.96046 
3.57645 92.128 -53.8457 
34.1311 -256.591 -251.735 
-16.4358 285.625 -191.475 
16.6142 -6.2083 -16.7555 
19.7422 22.3509 46.3809 
28.7022 -23.7498 129.625 
2.24035 -44.8859 -4.74212 
11.3419 -50.4296 -17.4893 
3.9346 -6.65673 5.71098 
-5.23404 9.84641 -4.83207 
2.07639 -6.74278 -18.0839 
197.278 3.42482 -122.722 
-91.1582 10.3572 147.999 
-8.8972 -9.65822 -15.696 
-29.4365 -9.43363 -22.7396 
-5.84031 -13.2022 12.1766 
164.788 -100.074 -38.3251 
8.61215 11.152 -6.66123 
-0.714278 -11.8153 -5.2793 
-206.31 -99.6217 246.298 
-1.4472 6.25426 8.12062 
-34.691 -6.97744 -22.0075 
8.58066 -6.41957 -26.1505 
8.73779 19.6616 -26.3075 
16.3321 1.55521 -32.4762 
-3.18694 6.27445 -18.5094 
-36.0595 10.4187 -98.1448 
-30.5269 41.1274 150.805 
150.082 24.9178 -206.475 
-9.10543 -5.96002 -8.70613 
9.35171e-05 0.0318699 0.0384747 
5.13234 8.77887 -8.30392 
-2.97817 -7.90854 -11.7154 
-24.2719 30.9722 24.6705 
1.88337 -0.345532 -13.4476 
-36.069 -108.536 -209.073 
45.2275 81.0812 53.9232 
1.24892 1.35137 -9.54315 
-3.10301 -0.600457 -10.5703 
-43.2775 9.21201 -81.7612 
3.51221 0.0368507 -5.91127 
-49.0511 -31.4492 85.7569 
119.516 -30.4364 251.582 
199.279 -0.880824 -482.904 
5.53827 -0.947026 -3.4792 
-2.35911 -4.11236 -1.68198 
-4.71391 -1.6255 11.296 
1.04727 -6.02845 -20.4217 
9.35391 -0.389041 -19.0291 
-0.818411 1.01022 6.45976 
-2.44926 1.68687 -3.33947 
-42.6996 15.1839 -78.2879 
-47.3783 -16.38 -20.8064 
48.1427 18.944 -56.9856 
-9.30702 30.3852 35.5863 
-2.32839 -8.48558 -25.1935 
-2.71619 -3.8067 -39.4904 
14.4181 9.1325 -55.313 
-7.72868 37.8285 -87.346 
40.6668 -198.046 -147.222 
-0.98732 1.21062 2.21356 
-72.014 354.866 -260.927 
-3.64647 -0.357962 -2.02176 
-1.97051 6.52023 -23.1158 
-13.1947 1.22115 -25.5998 
2.16229 -4.27669 -11.1825 
-14.4971 -9.16435 -34.2801 
9.26618 28.0777 -86.3875 
20.0954 0.456009 -45.3023 
9.13438 18.1228 -162.71 
11.1571 2.37268 18.5216 
1.82329 0.83551 -4.74477 
1.68235 1.73007 -1.22864 
7.04434 -1.2105 -18.7607 
15.8927 35.1413 -33.2043 
-3.38868 31.9124 -26.1172 
-1.39038 -2.83941 11.9014 
-10.1178 6.32862 -23.7458 
3.29911 31.5293 -52.9143 
9.23365 -3.81669 7.39078 
-11.4767 -9.22921 77.9337 
1.1612 -0.403656 0.0913086 
-119.898 -16.1727 -123.371 
-1.12703 1.54911 -6.4047 
-372.054 13.3984 87.3308 
0.0473781 1.97138 -7.0456 
2.33365 -4.90754 14.193 
0.0721911 0.0295962 0.0158021 
-0.0385349 6.60597 -3.27233 
36.5025 -30.4174 -119.767 
118.876 -14.2513 42.9973 
-3.03291 -4.25932 8.63886 
19.7789 -230.159 -38.643 
263.01 -10.9544 -277.413 
3.92881 -6.18396 17.1935 
3.60914 0.264399 6.51668 
166.741 -49.1758 134.604 
9.77518 -0.0100648 -4.48011 
123.968 15.9607 138.613 
44.2429 -337.855 284.54 
-362.008 248.574 353.957 
1.50244 -0.0488905 3.21514 
0.559284 0.00294836 3.59328 
-44.6357 -2.70764 -9.85789 
-11.6733 -0.982772 10.9692 
-3.51435 1.66976 0.12143 
-63.6307 31.6751 -55.4585 
-7.36892 -4.93595 5.32161 
1.76412 0.696395 12.1375 
-418.934 269.372 -346.895 
168.501 538.101 -160.548 
2.44536 15.7958 6.34205 
-31.9101 176.776 163.661 
-9.40022 13.3493 3.29761 
6.41196 11.0377 -48.6694 
39.8182 -304.51 -32.0071 
-1.11425 -8.79497 28.793 
6.18076 -24.0606 1.5645 
9.56412 -12.4561 6.44503 
1.84204e-05 -0.518773 -0.529117 
2.93175 -46.7966 78.6461 
-138.061 -44.0882 50.7917 
389.875 -692.711 -124.031 
592.794 589.819 107.522 
29.2035 9.36589 77.3054 
-15.9035 22.5176 77.9694 
-2.5352e-06 -1.37985e-06 13.6117 
-8.00173 -60.6432 72.231 
10.3772 -17.0007 109.569 
6.25406 -8.48299 10.3333 
-11.8024 -38.1917 188.299 
13.9069 -48.0941 -60.2987 
-20.4679 32.0925 -35.3597 
-2.76806 -1.571 17.4217 
39.1746 64.9839 146.093 
-23.0276 -4.56663 12.3823 
-27.9563 -13.4668 -0.949356 
10.7443 -15.56 32.667 
-32.7084 -22.8029 82.4385 
23.8475 2.1102 83.1252 
22.9624 68.4763 191.332 
-106.902 -19.1098 -150.194 
-75.6949 30.22 378.39 
11.0405 17.2699 34.3317 
0.152679 0.32254 15.168 
9.34142 5.00252 28.0779 
3.52207 -7.55877 61.0743 
17.6421 -104.94 178.32 
-44.1526 -40.4154 140.902 
-9.45293 12.5255 26.0092 
-0.96588 15.0018 100.29 
34.588 -94.2148 261.043 
-16.246 2.53168 89.9643 
7.93405 -29.5495 59.1578 
5.2974 1.91266 41.195 
-7.91823e-05 0.524541 14.136 
-12.658 0.495238 14.0168 
4.71584 -3.50491 30.8452 
2.6396 22.3397 55.2254 
-2.74868e-15 3.63907e-15 13.6117 
67.3314 -115.711 -85.2076 
-5.96376 -12.5114 7.35738 
5.72402e-15 -1.20891e-15 13.6117 
40.5098 138.412 -281.196 
204.02 -320.584 -630.164 
-2.61219e-05 -0.000146339 13.6119 
-3.11204 -2.31407 11.7399 
-0.641926 -0.169247 16.4273 
-4.97451 3.61311 14.0499 
-8.19583 -55.6963 27.6037 
VECTORS moment double
0 0 0 
0 0 0 
0 0 0 
0 0 0 
0 0 0 
0 0 0 
0 0 0 
0 0 0 
0 0 0 
0 0 0 
0 0 0 
0 0 0 
0 0 0 
0 0 0 
0 0 0 
0 0 0 
0 0 0 
0 0 0 
0 0 0 
0 0 0 
0 0 0 
0 0 0 
0 0 0 
0 0 0 
0 0 0 
0 0 0 
0 0 0 
0 0 0 
0 0 0 
0 0 0 
0 0 0 
0 0 0 
0 0 0 
0 0 0 
0 0 0 
0 0 0 
0 0 0 
0 0 0 
0 0 0 
0 0 0 
0 0 0 
0 0 0 
0 0 0 
0 0 0 
0 0 0 
0 0 0 
0 0 0 
0 0 0 
0 0 0 
0 0 0 
0 0 0 
0 0 0 
0 0 0 
0 0 0 
0 0 0 
0 0 0 
0 0 0 
0 0 0 
0 0 0 
0 0 0 
0 0 0 
0 0 0 
0 0 0 
0 0 0 
0 0 0 
0 0 0 
0 0 0 
0 0 0 
0 0 0 
0 0 0 
0 0 0 
0 0 0 
0 0 0 
0 0 0 
0 0 0 
0 0 0 
0 0 0 
0 0 0 
0 0 0 
0 0 0 
0 0 0 
0 0 0 
0 0 0 
0 0 0 
0 0 0 
0 0 0 
0 0 0 
0 0 0 
0 0 0 
0 0 0 
0 0 0 
0 0 0 
0 0 0 
0 0 0 
0 0 0 
0 0 0 
0 0 0 
0 0 0 
0 0 0 
0 0 0 
0 0 0 
0 0 0 
0 0 0 
0 0 0 
0 0 0 
0 0 0 
0 0 0 
0 0 0 
0 0 0 
0 0 0 
0 0 0 
0 0 0 
0 0 0 
0 0 0 
0 0 0 
0 0 0 
0 0 0 
0 0 0 
0 0 0 
0 0 0 
0 0 0 
0 0 0 
0 0 0 
0 0 0 
0 0 0 
0 0 0 
0 0 0 
0 0 0 
0 0 0 
0 0 0 
0 0 0 
0 0 0 
0 0 0 
0 0 0 
0 0 0 
0 0 0 
0 0 0 
0 0 0 
0 0 0 
0 0 0 
0 0 0 
0 0 0 
0 0 0 
0 0 0 
0 0 0 
0 0 0 
0 0 0 
0 0 0 
0 0 0 
0 0 0 
0 0 0 
0 0 0 
0 0 0 
0 0 0 
0 0 0 
0 0 0 
0 0 0 
0 0 0 
0 0 0 
0 0 0 
0 0 0 
0 0 0 
0 0 0 
0 0 0 
0 0 0 
0 0 0 
0 0 0 
0 0 0 
0 0 0 
0 0 0 
0 0 0 
0 0 0 
0 0 0 
0 0 0 
0 0 0 
0 0 0 
0 0 0 
0 0 0 
0 0 0 
0 0 0 
0 0 0 
0 0 0 
0 0 0 
0 0 0 
0 0 0 
0 0 0 
0 0 0 
0 0 0 
0 0 0 
0 0 0 
0 0 0 
0 0 0 
0 0 0 
0 0 0 
0 0 0 
0 0 0 
0 0 0 
0 0 0 
0 0 0 
0 0 0 
0 0 0 
0 0 0 
0 0 0 
0 0 0 
0 0 0 
0 0 0 
0 0 0 
0 0 0 
0 0 0 
0 0 0 
0 0 0 
0 0 0 
0 0 0 
0 0 0 
0 0 0 
0 0 0 
0 0 0 
0 0 0 
0 0 0 
0 0 0 
0 0 0 
0 0 0 
0 0 0 
0 0 0 
0 0 0 
0 0 0 
0 0 0 
0 0 0 
0 0 0 
0 0 0 
0 0 0 
0 0 0 
0 0 0 
0 0 0 
0 0 0 
0 0 0 
0 0 0 
0 0 0 
0 0 0 
0 0 0 
0 0 0 
0 0 0 
0 0 0 
0 0 0 
0 0 0 
0 0 0 
0 0 0 
0 0 0 
0 0 0 
0 0 0 
0 0 0 
0 0 0 
0 0 0 
0 0 0 
0 0 0 
0 0 0 
0 0 0 
0 0 0 
0 0 0 
0 0 0 
0 0 0 
0 0 0 
0 0 0 
0 0 0 
0 0 0 
0 0 0 
0 0 0 
0 0 0 
0 0 0 
0 0 0 
0 0 0 
0 0 0 
0 0 0 
0 0 0 
0 0 0 
0 0 0 
0 0 0 
0 0 0 
0 0 0 
0 0 0 
0 0 0 
0 0 0 
0 0 0 
0 0 0 
0 0 0 
0 0 0 
0 0 0 
0 0 0 
0 0 0 
0 0 0 
0 0 0 
0 0 0 
0 0 0 
0 0 0 
0 0 0 
0 0 0 
0 0 0 
0 0 0 
0 0 0 
0 0 0 
0 0 0 
0 0 0 
0 0 0 
0 0 0 
0 0 0 
0 0 0 
0 0 0 
0 0 0 
0 0 0 
0 0 0 
0 0 0 
0 0 0 
0 0 0 
0 0 0 
0 0 0 
0 0 0 
0 0 0 
0 0 0 
0 0 0 
0 0 0 
0 0 0 
0 0 0 
0 0 0 
0 0 0 
0 0 0 
0 0 0 
0 0 0 
0 0 0 
0 0 0 
0 0 0 
0 0 0 
0 0 0 
0 0 0 
0 0 0 
0 0 0 
0 0 0 
0 0 0 
0 0 0 
0 0 0 
0 0 0 
0 0 0 
0 0 0 
0 0 0 
0 0 0 
0 0 0 
0 0 0 
0 0 0 
0 0 0 
0 0 0 
0 0 0 
0 0 0 
SCALARS num_collisions int 1
LOOKUP_TABLE default
1 
1 
1 
1 
1 
1 
1 
1 
1 
1 
1 
1 
1 
1 
1 
1 
1 
1 
1 
1 
1 
1 
1 
1 
1 
1 
1 
1 
1 
1 
1 
1 
1 
1 
1 
1 
1 
1 
1 
1 
1 
1 
1 
1 
1 
1 
1 
1 
1 
1 
1 
1 
1 
1 
1 
1 
1 
1 
1 
1 
1 
1 
1 
1 
1 
1 
1 
1 
1 
1 
1 
1 
1 
1 
1 
1 
1 
1 
1 
1 
1 
1 
1 
1 
1 
1 
1 
1 
1 
1 
1 
1 
1 
1 
1 
1 
1 
1 
1 
1 
1 
1 
1 
1 
1 
1 
1 
1 
1 
1 
1 
1 
1 
1 
1 
1 
1 
1 
1 
1 
1 
1 
1 
1 
1 
1 
1 
1 
1 
1 
1 
1 
1 
1 
1 
1 
1 
1 
1 
1 
1 
1 
1 
1 
1 
1 
1 
1 
1 
1 
1 
1 
1 
1 
1 
1 
1 
1 
1 
1 
1 
1 
1 
1 
1 
1 
1 
1 
1 
1 
1 
1 
1 
1 
1 
1 
1 
1 
1 
1 
1 
1 
1 
1 
1 
1 
1 
1 
1 
1 
1 
1 
1 
1 
1 
1 
1 
1 
1 
1 
1 
1 
1 
1 
1 
1 
1 
1 
1 
1 
1 
1 
1 
1 
1 
1 
1 
1 
1 
1 
1 
1 
1 
1 
1 
1 
1 
1 
1 
1 
1 
1 
1 
1 
1 
1 
1 
1 
1 
1 
1 
1 
1 
1 
1 
1 
1 
1 
1 
1 
1 
1 
1 
1 
1 
1 
1 
1 
1 
1 
1 
1 
1 
1 
1 
1 
1 
1 
1 
1 
1 
1 
1 
1 
1 
1 
1 
1 
1 
1 
1 
1 
1 
1 
1 
1 
1 
1 
1 
1 
1 
1 
1 
1 
1 
1 
1 
1 
1 
1 
1 
1 
1 
1 
1 
1 
1 
1 
1 
1 
1 
1 
1 
1 
1 
1 
1 
1 
1 
1 
1 
1 
1 
1 
1 
1 
1 
1 
1 
1 
1 
1 
1 
1 
1 
1 
1 
1 
1 
1 
1 
1 
1 
1 
1 
1 
1 
1 
1 
1 
1 
VECTORS pos double
-0.415557 -0.417229 -0.427738 
-0.388992 -0.0254822 -0.423443 
-0.449347 0.145282 -0.410868 
-0.413136 0.0933415 -0.422508 
-0.419278 0.377622 -0.422621 
-0.445017 0.312044 -0.41637 
-0.26148 -0.422447 -0.411184 
-0.312253 -0.206539 -0.400197 
-0.186306 0.0389649 -0.439423 
-0.181317 0.117057 -0.46606 
-0.223103 0.33426 -0.445657 
-0.0774422 -0.3837 -0.434719 
-0.184165 -0.155471 -0.427678 
-0.137564 -0.0964852 -0.420139 
-0.00622061 -0.0857292 -0.445744 
-0.0334102 -0.0524381 -0.42172 
0.0454838 0.22785 -0.461148 
-0.0160882 0.152485 -0.4295 
0.0722204 0.155729 -0.423666 
-0.0252534 0.358545 -0.401306 
0.216087 -0.413625 -0.423994 
0.163124 -0.220296 -0.42893 
0.190831 0.0174394 -0.424543 
0.142801 0.251935 -0.445834 
0.333899 0.418023 -0.449476 
0.316986 0.356155 -0.412608 
0.295507 0.389611 -0.365372 
0.44386 -0.381619 -0.407759 
0.423376 -0.4288 -0.413444 
0.434463 -0.329141 -0.407746 
0.295064 -0.0364826 -0.447022 
0.352145 0.0774846 -0.411427 
0.415422 0.115034 -0.422972 
0.405064 0.456923 -0.423565 
-0.366484 -0.398324 -0.392512 
-0.419007 -0.439255 -0.361791 
-0.445865 -0.255938 -0.291167 
-0.435098 -0.0495829 -0.36082 
-0.346539 -0.0211725 -0.388202 
-0.44496 0.225865 -0.37721 
-0.309853 -0.415303 -0.362347 
-0.298089 0.126486 -0.43625 
-0.15849 0.416188 -0.376724 
-0.139288 0.37507 -0.404635 
-0.0988144 -0.34502 -0.375315 
-0.0418223 -0.365597 -0.364981 
0.308775 -0.280579 -0.0736233 
0.319893 -0.205231 -0.135654 
-0.0112377 -0.0105559 -0.347116 
-0.0140265 -0.0156511 -0.254638 
-0.00661374 0.245384 -0.408808 
0.0814693 0.345997 -0.404095 
0.200605 -0.428624 -0.356539 
0.24961 -0.427538 -0.385879 
0.18335 -0.192534 -0.34426 
0.161609 -0.269323 -0.409203 
0.168096 0.0390599 -0.359172 
0.225803 0.164595 -0.453334 
0.150279 0.126499 -0.428105 
0.249692 0.34351 -0.325147 
0.268475 0.412516 -0.291392 
0.423368 -0.449103 -0.334545 
0.371321 -0.43111 -0.338179 
0.450005 0.186419 -0.380259 
0.449987 0.0968401 -0.368951 
0.397805 0.302234 -0.472626 
0.439793 0.356179 -0.411258 
-0.416151 -0.450914 -0.277803 
-0.305084 -0.247185 -0.324285 
-0.290187 0.0127479 -0.344117 
-0.325565 -0.0246486 -0.298456 
-0.309084 0.249963 -0.406386 
-0.431529 0.267667 -0.334143 
-0.437175 0.254587 -0.428057 
-0.178602 -0.406728 -0.408749 
0.232932 -0.322365 -0.254104 
0.19329 -0.37637 -0.209856 
-0.248796 -0.0845882 -0.0990948 
-0.347452 0.343685 -0.367074 
0.0660788 -0.470177 -0.41092 
0.248367 -0.307354 -0.116636 
0.204564 0.102119 -0.224443 
-0.0117642 0.2551 -0.364885 
-0.0908741 0.239971 -0.356977 
0.301076 0.324781 -0.44921 
0.22514 0.363074 -0.434746 
0.241249 -0.434775 -0.268013 
0.0963149 -0.0883845 -0.43415 
0.0124423 -0.121679 -0.395191 
0.139975 0.0455198 -0.295593 
0.292861 0.061144 -0.412283 
0.0827302 0.128261 -0.358553 
0.41444 -0.211954 -0.415257 
0.357689 -0.196555 -0.409458 
0.365797 -0.0925377 -0.405074 
0.415932 -0.106529 -0.413475 
0.445536 0.239248 -0.414104 
-0.408331 -0.436637 -0.201492 
-0.183747 -0.211921 -0.325605 
-0.222518 0.0426327 -0.352118 
-0.287854 0.0398332 -0.313127 
-0.329609 0.0885307 -0.394598 
-0.342452 0.189184 -0.345667 
-0.166192 -0.390471 -0.370924 
-0.213536 -0.422449 -0.386688 
-0.147904 -0.0639911 -0.343657 
-0.206402 0.0773747 -0.216887 
-0.0806263 0.151098 -0.41946 
-0.328394 0.409627 -0.382981 
0.0567411 -0.455011 -0.343812 
0.0859741 -0.445792 -0.305838 
-0.14864 -0.272111 -0.369089 
-0.0165338 0.0300103 -0.397517 
0.0337596 0.0489554 -0.411425 
0.0421419 0.423987 -0.445442 
0.0281793 0.407249 -0.400015 
0.207878 -0.304803 -0.359938 
0.0795178 0.0579072 -0.277437 
0.131568 0.0205522 -0.239463 
0.218892 0.191077 -0.394956 
0.306889 -0.314749 -0.32258 
0.374475 -0.269648 -0.311643 
0.45001 -0.12487 -0.330724 
0.443872 -0.0715395 -0.340953 
0.330703 0.258602 -0.405668 
0.409082 0.331478 -0.344539 
0.452165 0.378817 -0.339563 
-0.435557 -0.446148 -0.141654 
-0.379193 -0.397596 -0.149447 
-0.330807 -0.020114 -0.239443 
-0.410365 0.0809637 -0.35877 
-0.0336123 -0.124734 -0.336395 
0.404578 -0.205166 -0.0301136 
0.0410972 0.074252 -0.333224 
0.302509 -0.370801 -0.168608 
0.340735 -0.400987 -0.25107 
0.27618 -0.415661 -0.15959 
0.255249 -0.318676 -0.312504 
0.0367384 0.0946578 -0.288224 
0.0127502 0.104461 -0.22058 
0.226873 0.196006 -0.350212 
0.299006 0.450007 -0.26195 
0.366474 0.43724 -0.214253 
-0.440659 -0.451687 -0.0606203 
-0.347847 0.443671 -0.307185 
-0.275091 0.437947 -0.31291 
-0.108507 -0.385663 -0.308524 
-0.094155 -0.267593 -0.358631 
-0.165612 0.117359 -0.347452 
-0.195474 0.356354 -0.365503 
-0.226848 0.298693 -0.365275 