# vtk DataFile Version 2.0
Generated by NetDEM
ASCII 
DATASET POLYDATA
POINTS 400 double
-0.416937 -0.405471 -0.462869 
-0.403113 -0.399765 -0.388288 
-0.411187 -0.00741204 -0.464104 
-0.412024 -0.00917355 -0.390673 
-0.264683 -0.432758 -0.459563 
-0.300775 -0.40478 -0.384436 
-0.175856 0.205821 -0.457713 
-0.203461 0.208739 -0.377155 
-0.246756 0.36913 -0.465051 
-0.155284 0.41046 -0.443996 
-0.0312477 -0.402157 -0.452179 
-0.0363795 -0.388546 -0.379359 
-0.0372162 0.393395 -0.46506 
0.0394933 0.353492 -0.412675 
0.18904 -0.398241 -0.464453 
0.187698 -0.396661 -0.392014 
0.174446 -0.212333 -0.464884 
0.192434 -0.206276 -0.39063 
0.172947 -0.00936796 -0.46258 
0.186001 -0.0130933 -0.383946 
-0.403113 -0.399765 -0.388288 
-0.401362 -0.403919 -0.315837 
-0.403333 -0.203333 -0.349793 
-0.403333 -0.203333 -0.249796 
-0.412024 -0.00917355 -0.390673 
-0.39356 -0.00243764 -0.311389 
-0.403465 0.197003 -0.349808 
-0.402553 0.197085 -0.249814 
-0.402763 0.397237 -0.34979 
-0.402763 0.397237 -0.249792 
-0.300775 -0.40478 -0.384436 
-0.401362 -0.403919 -0.315837 
-0.300775 -0.40478 -0.384436 
-0.238883 -0.400961 -0.3037 
-0.203538 -0.203538 -0.349791 
-0.203538 -0.203538 -0.249794 
-0.203218 -0.00321788 -0.349801 
-0.203218 -0.00321788 -0.249804 
-0.155284 0.41046 -0.443996 
-0.203381 0.442247 -0.377157 
-0.0363795 -0.388546 -0.379359 
0.00101115 -0.412394 -0.305376 
-0.00366947 -0.203669 -0.349793 
-0.00366947 -0.203669 -0.249796 
-0.00360232 -0.00360232 -0.349805 
-0.00360232 -0.00360232 -0.249808 
0.000554181 0.244744 -0.435135 
-0.0325497 0.235521 -0.34576 
0.187698 -0.396661 -0.392014 
0.175605 -0.395113 -0.318328 
0.192434 -0.206276 -0.39063 
0.173656 -0.184566 -0.306028 
0.186001 -0.0130933 -0.383946 
0.18796 0.00305915 -0.309474 
0.196913 0.396913 -0.349798 
0.196913 0.396913 -0.249801 
0.396713 -0.403287 -0.349795 
0.396713 -0.403287 -0.249798 
0.39661 -0.20339 -0.349784 
0.39661 -0.20339 -0.249787 
0.396488 -0.00351175 -0.349791 
0.396488 -0.00351175 -0.249794 
0.396508 0.196508 -0.349792 
0.396508 0.196508 -0.249795 
0.384449 0.360471 -0.440993 
0.410927 0.306047 -0.355319 
-0.401362 -0.403919 -0.315837 
-0.409995 -0.405169 -0.240641 
-0.403333 -0.203333 -0.249796 
-0.403333 -0.203333 -0.149802 
-0.39356 -0.00243764 -0.311389 
-0.39294 0.0015756 -0.234795 
-0.402553 0.197085 -0.249814 
-0.402881 0.197066 -0.149819 
-0.402763 0.397237 -0.249792 
-0.402763 0.397237 -0.149798 
-0.182828 -0.395025 -0.436804 
-0.139821 -0.409613 -0.345564 
-0.203538 -0.203538 -0.249794 
-0.203538 -0.203538 -0.1498 
-0.203218 -0.00321788 -0.249804 
-0.203218 -0.00321788 -0.149809 
-0.203381 0.442247 -0.377157 
-0.212144 0.422085 -0.289058 
0.00101115 -0.412394 -0.305376 
0.0400677 -0.410845 -0.228699 
-0.00366947 -0.203669 -0.249796 
-0.00366947 -0.203669 -0.149802 
-0.00360232 -0.00360232 -0.249808 
-0.00360232 -0.00360232 -0.149814 
0.175605 -0.395113 -0.318328 
0.200488 -0.398274 -0.229319 
0.173656 -0.184566 -0.306028 
0.185997 -0.20249 -0.22176 
0.18796 0.00305915 -0.309474 
0.192257 0.00341058 -0.235824 
0.196913 0.396913 -0.249801 
0.196913 0.396913 -0.149807 
0.396713 -0.403287 -0.249798 
0.396713 -0.403287 -0.149804 
0.39661 -0.20339 -0.249787 
0.39661 -0.20339 -0.149793 
0.396488 -0.00351175 -0.249794 
0.396488 -0.00351175 -0.1498 
0.396508 0.196508 -0.249795 
0.396508 0.196508 -0.149801 
-0.409995 -0.405169 -0.240641 
-0.407829 -0.408179 -0.155994 
-0.403333 -0.203333 -0.149802 
-0.403333 -0.203333 -0.0498108 
-0.39294 0.0015756 -0.234795 
-0.395846 -0.00506149 -0.152938 
-0.402881 0.197066 -0.149819 
-0.403032 0.197038 -0.0498253 
-0.402763 0.397237 -0.149798 
-0.402763 0.397237 -0.0498068 
-0.139821 -0.409613 -0.345564 
-0.238883 -0.400961 -0.3037 
-0.203538 -0.203538 -0.1498 
-0.203538 -0.203538 -0.0498091 
-0.203218 -0.00321788 -0.149809 
-0.203218 -0.00321788 -0.0498169 
-0.212144 0.422085 -0.289058 
-0.228195 0.384279 -0.21975 
-0.00366947 -0.203669 -0.149802 
-0.00366947 -0.203669 -0.0498105 
-0.00360232 -0.00360232 -0.149814 
-0.00360232 -0.00360232 -0.0498234 
0.200488 -0.398274 -0.229319 
0.198356 -0.404447 -0.157524 
0.185997 -0.20249 -0.22176 
0.200119 -0.235716 -0.137022 
0.192257 0.00341058 -0.235824 
0.187503 0.00102886 -0.162963 
0.196913 0.396913 -0.149807 
0.196913 0.396913 -0.0498154 
0.396713 -0.403287 -0.149804 
0.396713 -0.403287 -0.0498125 
0.39661 -0.20339 -0.149793 
0.39661 -0.20339 -0.049802 
0.396488 -0.00351175 -0.1498 
0.396488 -0.00351175 -0.0498087 
0.396508 0.196508 -0.149801 
0.396508 0.196508 -0.0498102 
-0.407829 -0.408179 -0.155994 
-0.411922 -0.406533 -0.0793364 
-0.403333 -0.203333 -0.0498108 
-0.403333 -0.203333 0.0501758 
-0.395846 -0.00506149 -0.152938 
-0.41851 -0.00430335 -0.0788291 
-0.403032 0.197038 -0.0498253 
-0.402923 0.19705 0.0501639 
-0.402763 0.397237 -0.0498068 
-0.402763 0.397237 0.0501794 
-0.238883 -0.400961 -0.3037 
-0.227537 -0.402852 -0.210587 
-0.203538 -0.203538 -0.0498091 
-0.203538 -0.203538 0.0501773 
-0.203218 -0.00321788 -0.0498169 
-0.203218 -0.00321788 0.0501707 
-0.228195 0.384279 -0.21975 
-0.189303 0.391898 -0.132552 
-0.00366947 -0.203669 -0.0498105 
-0.00366947 -0.203669 0.0501761 
-0.00360232 -0.00360232 -0.0498234 
-0.00360232 -0.00360232 0.0501633 
0.198356 -0.404447 -0.157524 
0.207982 -0.400413 -0.078201 
0.200119 -0.235716 -0.137022 
0.194021 -0.210683 -0.0451859 
0.187503 0.00102886 -0.162963 
0.185168 -0.00204148 -0.0862769 
0.196913 0.396913 -0.0498154 
0.196913 0.396913 0.0501716 
0.396713 -0.403287 -0.0498125 
0.396713 -0.403287 0.0501742 
0.39661 -0.20339 -0.049802 
0.39661 -0.20339 0.0501836 
0.396488 -0.00351175 -0.0498087 
0.396488 -0.00351175 0.0501778 
0.396508 0.196508 -0.0498102 
0.396508 0.196508 0.0501764 
-0.411922 -0.406533 -0.0793364 
-0.411228 -0.404543 0.000657225 
-0.403333 -0.203333 0.0501758 
-0.403333 -0.203333 0.150156 
-0.41851 -0.00430335 -0.0788291 
-0.407298 -0.00222306 0.0120708 
-0.402923 0.19705 0.0501639 
-0.402949 0.197051 0.150146 
-0.402763 0.397237 0.0501794 
-0.402763 0.397237 0.150158 
-0.227537 -0.402852 -0.210587 
-0.185887 -0.402993 -0.110607 
-0.203538 -0.203538 0.0501773 
-0.203538 -0.203538 0.150157 
-0.203218 -0.00321788 0.0501707 
-0.203218 -0.00321788 0.150151 
-0.189303 0.391898 -0.132552 
-0.20358 0.402069 -0.059164 
-0.00366947 -0.203669 0.0501761 
-0.00366947 -0.203669 0.150156 
-0.00360232 -0.00360232 0.0501633 
-0.00360232 -0.00360232 0.150144 
0.207982 -0.400413 -0.078201 
0.18695 -0.407321 -0.00777222 
0.194021 -0.210683 -0.0451859 
0.196692 -0.202086 0.0342441 
0.185168 -0.00204148 -0.0862769 
0.187669 -0.00394506 -0.00822815 
0.196913 0.396913 0.0501716 
0.196913 0.396913 0.150152 
0.396713 -0.403287 0.0501742 
0.396713 -0.403287 0.150154 
0.39661 -0.20339 0.0501836 
0.39661 -0.20339 0.150162 
0.396488 -0.00351175 0.0501778 
0.396488 -0.00351175 0.150157 
0.396508 0.196508 0.0501764 
0.396508 0.196508 0.150156 
-0.411228 -0.404543 0.000657225 
-0.408935 -0.403275 0.0806799 
-0.403333 -0.203333 0.150156 
-0.403333 -0.203333 0.250127 
-0.407298 -0.00222306 0.0120708 
-0.410616 -0.00232568 0.085833 
-0.402949 0.197051 0.150146 
-0.402953 0.197049 0.25012 
-0.402763 0.397237 0.150158 
-0.402763 0.397237 0.250128 
-0.185887 -0.402993 -0.110607 
-0.204458 -0.402236 -0.0124228 
-0.203538 -0.203538 0.150157 
-0.203538 -0.203538 0.250128 
-0.203218 -0.00321788 0.150151 
-0.203218 -0.00321788 0.250123 
-0.00366947 -0.203669 0.150156 
-0.00366947 -0.203669 0.250127 
-0.00360232 -0.00360232 0.150144 
-0.00360232 -0.00360232 0.250117 
0.18695 -0.407321 -0.00777222 
0.201203 -0.399825 0.0863023 
0.196692 -0.202086 0.0342441 
0.196004 -0.202462 0.125662 
0.187669 -0.00394506 -0.00822815 
0.190047 -0.00649879 0.0693458 
0.196913 0.396913 0.150152 
0.196913 0.396913 0.250124 
0.396713 -0.403287 0.150154 
0.396713 -0.403287 0.250126 
0.39661 -0.20339 0.150162 
0.39661 -0.20339 0.250131 
0.396488 -0.00351175 0.150157 
0.396488 -0.00351175 0.250128 
0.396508 0.196508 0.150156 
0.396508 0.196508 0.250127 
-0.403333 -0.203333 0.250127 
-0.403333 -0.203333 0.350091 
-0.410616 -0.00232568 0.085833 
-0.402813 -0.00380485 0.161944 
-0.402953 0.197049 0.25012 
-0.40295 0.19705 0.350086 
-0.402763 0.397237 0.250128 
-0.402763 0.397237 0.350092 
-0.204458 -0.402236 -0.0124228 
-0.202792 -0.403123 0.104754 
-0.203538 -0.203538 0.250128 
-0.203538 -0.203538 0.350092 
-0.203218 -0.00321788 0.250123 
-0.203218 -0.00321788 0.350088 
-0.00409602 -0.403329 0.118408 
-0.00459322 -0.404143 0.211984 
-0.00366947 -0.203669 0.250127 
-0.00366947 -0.203669 0.350091 
-0.00360232 -0.00360232 0.250117 
-0.00360232 -0.00360232 0.350084 
0.201203 -0.399825 0.0863023 
0.19613 -0.402646 0.158717 
0.196004 -0.202462 0.125662 
0.195382 -0.2049 0.211407 
0.190047 -0.00649879 0.0693458 
0.196364 -0.00364635 0.149123 
0.196913 0.396913 0.250124 
0.196913 0.396913 0.350089 
0.396713 -0.403287 0.250126 
0.396713 -0.403287 0.35009 
0.39661 -0.20339 0.250131 
0.39661 -0.20339 0.350094 
0.396488 -0.00351175 0.250128 
0.396488 -0.00351175 0.350092 
0.396508 0.196508 0.250127 
0.396508 0.196508 0.350091 
-0.403333 -0.203333 0.350091 
-0.403333 -0.203333 0.450052 
-0.40295 0.19705 0.350086 
-0.40295 0.19705 0.450049 
-0.402763 0.397237 0.350092 
-0.402763 0.397237 0.450052 
-0.203538 -0.203538 0.350092 
-0.203538 -0.203538 0.450052 
-0.203218 -0.00321788 0.350088 
-0.203218 -0.00321788 0.45005 
-0.00366947 -0.203669 0.350091 
-0.00366947 -0.203669 0.450052 
-0.00360232 -0.00360232 0.350084 
-0.00360232 -0.00360232 0.450048 
0.196913 0.396913 0.350089 
0.196913 0.396913 0.450051 
0.396713 -0.403287 0.35009 
0.396713 -0.403287 0.450051 
0.39661 -0.20339 0.350094 
0.39661 -0.20339 0.450053 
0.396488 -0.00351175 0.350092 
0.396488 -0.00351175 0.450052 
0.396508 0.196508 0.350091 
0.396508 0.196508 0.450052 
-0.402763 0.397237 -0.450007 
-0.402763 0.397237 -0.5 
0.172947 -0.00936796 -0.46258 
0.20567 -0.00248509 -0.500063 
-0.411187 -0.00741204 -0.464104 
-0.395035 -0.00932578 -0.500051 
-0.0372162 0.393395 -0.46506 
-0.0351206 0.383814 -0.500009 
-0.0312477 -0.402157 -0.452179 
-0.00482022 -0.387924 -0.500018 
-0.155284 0.41046 -0.443996 
-0.137181 0.406589 -0.500012 
0.39661 -0.20339 -0.450007 
0.39661 -0.20339 -0.5 
-0.416937 -0.405471 -0.462869 
-0.404425 -0.401169 -0.500044 
0.396508 0.196508 -0.450007 
0.396508 0.196508 -0.5 
0.18904 -0.398241 -0.464453 
0.194263 -0.39559 -0.500037 
-0.175856 0.205821 -0.457713 
-0.195148 0.213998 -0.500006 
0.174446 -0.212333 -0.464884 
0.171948 -0.194528 -0.500028 
-0.246756 0.36913 -0.465051 
-0.236965 0.368641 -0.500004 
-0.264683 -0.432758 -0.459563 
-0.260736 -0.419219 -0.500037 
0.396488 -0.00351175 -0.450007 
0.396488 -0.00351175 -0.5 
-0.403333 -0.203333 -0.450007 
-0.403333 -0.203333 -0.5 
-0.403676 0.196995 -0.450009 
-0.403675 0.196995 -0.5 
-0.203538 -0.203538 -0.450007 
-0.203538 -0.203538 -0.5 
-0.203218 -0.00321788 -0.450007 
-0.203218 -0.00321788 -0.5 
-0.00366947 -0.203669 -0.450007 
-0.00366947 -0.203669 -0.5 
-0.00360232 -0.00360232 -0.450007 
-0.00360232 -0.00360232 -0.5 
0.196913 0.396913 -0.450007 
0.196913 0.396913 -0.5 
0.396713 -0.403287 -0.450007 
0.396713 -0.403287 -0.5 
0.370101 0.441215 -0.464772 
0.376124 0.446289 -0.5 
0.384449 0.360471 -0.440993 
0.346517 0.336231 -0.500046 
0.000554181 0.244744 -0.435135 
-0.0282187 0.215049 -0.500005 
0.158274 0.20891 -0.464095 
0.111856 0.212366 -0.500002 
-0.182828 -0.395025 -0.436804 
-0.163312 -0.434154 -0.500049 
0.0345098 0.181179 -0.452134 
0.0391186 0.167015 -0.500003 
-0.299685 0.161467 -0.463578 
-0.284843 0.199782 -0.500001 
0.396713 -0.403287 0.450051 
0.396713 -0.403287 0.5 
-0.00360232 -0.00360232 0.450048 
-0.00360232 -0.00360232 0.5 
0.396508 0.196508 0.450052 
0.396508 0.196508 0.5 
-0.40295 0.19705 0.450049 
-0.40295 0.19705 0.5 
-0.402763 0.397237 0.450052 
-0.402763 0.397237 0.5 
0.396488 -0.00351175 0.450052 
0.396488 -0.00351175 0.5 
-0.403333 -0.203333 0.450052 
-0.403333 -0.203333 0.5 
-0.203538 -0.203538 0.450052 
-0.203538 -0.203538 0.5 
-0.00366947 -0.203669 0.450052 
-0.00366947 -0.203669 0.5 
0.196913 0.396913 0.450051 
0.196913 0.396913 0.5 
-0.203218 -0.00321788 0.45005 
-0.203218 -0.00321788 0.5 
0.39661 -0.20339 0.450053 
0.39661 -0.20339 0.5 
LINES 200 600
2 0 1
2 2 3
2 4 5
2 6 7
2 8 9
2 10 11
2 12 13
2 14 15
2 16 17
2 18 19
2 20 21
2 22 23
2 24 25
2 26 27
2 28 29
2 30 31
2 32 33
2 34 35
2 36 37
2 38 39
2 40 41
2 42 43
2 44 45
2 46 47
2 48 49
2 50 51
2 52 53
2 54 55
2 56 57
2 58 59
2 60 61
2 62 63
2 64 65
2 66 67
2 68 69
2 70 71
2 72 73
2 74 75
2 76 77
2 78 79
2 80 81
2 82 83
2 84 85
2 86 87
2 88 89
2 90 91
2 92 93
2 94 95
2 96 97
2 98 99
2 100 101
2 102 103
2 104 105
2 106 107
2 108 109
2 110 111
2 112 113
2 114 115
2 116 117
2 118 119
2 120 121
2 122 123
2 124 125
2 126 127
2 128 129
2 130 131
2 132 133
2 134 135
2 136 137
2 138 139
2 140 141
2 142 143
2 144 145
2 146 147
2 148 149
2 150 151
2 152 153
2 154 155
2 156 157
2 158 159
2 160 161
2 162 163
2 164 165
2 166 167
2 168 169
2 170 171
2 172 173
2 174 175
2 176 177
2 178 179
2 180 181
2 182 183
2 184 185
2 186 187
2 188 189
2 190 191
2 192 193
2 194 195
2 196 197
2 198 199
2 200 201
2 202 203
2 204 205
2 206 207
2 208 209
2 210 211
2 212 213
2 214 215
2 216 217
2 218 219
2 220 221
2 222 223
2 224 225
2 226 227
2 228 229
2 230 231
2 232 233
2 234 235
2 236 237
2 238 239
2 240 241
2 242 243
2 244 245
2 246 247
2 248 249
2 250 251
2 252 253
2 254 255
2 256 257
2 258 259
2 260 261
2 262 263
2 264 265
2 266 267
2 268 269
2 270 271
2 272 273
2 274 275
2 276 277
2 278 279
2 280 281
2 282 283
2 284 285
2 286 287
2 288 289
2 290 291
2 292 293
2 294 295
2 296 297
2 298 299
2 300 301
2 302 303
2 304 305
2 306 307
2 308 309
2 310 311
2 312 313
2 314 315
2 316 317
2 318 319
2 320 321
2 322 323
2 324 325
2 326 327
2 328 329
2 330 331
2 332 333
2 334 335
2 336 337
2 338 339
2 340 341
2 342 343
2 344 345
2 346 347
2 348 349
2 350 351
2 352 353
2 354 355
2 356 357
2 358 359
2 360 361
2 362 363
2 364 365
2 366 367
2 368 369
2 370 371
2 372 373
2 374 375
2 376 377
2 378 379
2 380 381
2 382 383
2 384 385
2 386 387
2 388 389
2 390 391
2 392 393
2 394 395
2 396 397
2 398 399
POINT_DATA 400
SCALARS id int 1
LOOKUP_TABLE default
0
25
2
27
5
30
8
58
9
34
10
35
14
39
15
40
16
41
17
42
25
50
26
51
27
52
28
53
29
54
30
50
30
105
31
56
32
57
34
59
35
60
36
61
37
62
38
63
40
65
41
66
42
67
44
69
45
70
46
71
47
72
48
73
49
74
50
75
51
76
52
77
53
78
54
79
55
80
56
81
57
82
59
84
60
85
61
86
62
87
65
90
66
91
67
92
69
94
70
95
71
96
72
97
73
98
75
100
76
101
77
102
78
103
79
104
80
105
81
106
82
107
84
109
86
111
87
112
90
115
91
116
92
117
94
119
95
120
96
121
97
122
98
123
100
125
101
126
102
127
103
128
104
129
105
130
106
131
107
132
109
134
111
136
112
137
115
140
116
141
117
142
119
144
120
145
121
146
122
147
123
148
125
150
126
151
127
152
128
153
129
154
130
155
131
156
132
157
134
159
136
161
137
162
140
165
141
166
142
167
144
169
145
170
146
171
147
172
148
173
150
175
151
176
152
177
153
178
154
179
155
180
156
181
157
182
161
186
162
187
165
190
166
191
167
192
169
194
170
195
171
196
172
197
173
198
176
201
177
202
178
203
179
204
180
205
181
206
182
207
185
210
186
211
187
212
190
215
191
216
192
217
194
219
195
220
196
221
197
222
198
223
201
226
203
228
204
229
206
231
207
232
211
236
212
237
219
244
220
245
221
246
222
247
223
248
4
4
17
4
2
4
14
4
10
4
34
4
21
4
0
4
23
4
15
4
8
4
16
4
9
4
5
4
22
4
1
4
3
4
6
4
7
4
11
4
12
4
19
4
20
4
24
4
49
4
38
4
18
4
55
4
13
4
33
4
245
5
237
5
248
5
228
5
229
5
247
5
226
5
231
5
236
5
244
5
232
5
246
5
CELL_DATA 200
VECTORS force double
-37.8313 2.50681 -200.654 
0.0155045 -8.16733 -160.571 
6.66536 -1.93319 -102.96 
1.00011 1.15737 -13.7551 
-14.0989 -7.41451 -18.8938 
6.69863 7.68828 -97.2481 
-27.9017 10.0911 -30.2261 
-1.6302 -0.813504 -126.84 
0.726976 -2.13895 -107.743 
-5.51935 -6.49597 -235.27 
-80.2685 5.31238 -207.243 
0 0 5.70676 
5.53391 -10.3064 -132.278 
0.0330437 0.00348539 7.25719 
0 0 6.15801 
106.533 2.07078 90.0284 
-98.4866 -6.5465 -135.812 
0 0 5.68536 
0 0 6.42358 
6.66931 -6.16031 -54.1477 
-32.2731 15.2826 -84.0374 
0 0 5.69945 
0 0 5.51073 
-0.866622 -3.03416 -8.55223 
-0.343971 -5.05652 -107.245 
-3.63717 7.22677 -77.4419 
2.25561 -0.587876 -212.38 
0 0 5.78546 
0 0 5.74063 
0 0 6.02629 
0 0 5.67853 
0 0 5.70117 
-6.31214 -7.56632 -7.06141 
-2.6917 -1.44427 -49.397 
0 0 12.3109 
3.76981 1.43182 -104.848 
-0.024027 -0.00201778 15.0796 
0 0 12.9316 
16.1752 -28.5603 -204.193 
0 0 12.2759 
0 0 13.8155 
8.26957 -7.2381 -37.4509 
-26.524 6.87647 -57.1759 
0 0 12.3206 
0 0 12.0132 
1.27118 -3.23284 -84.7219 
-0.476861 11.6881 -63.7966 
13.2418 2.70342 -190.74 
0 0 12.4718 
0 0 12.3833 
0 0 12.6732 
0 0 12.257 
0 0 12.3094 
2.26872 0.355188 -31.902 
0 0 19.1343 
0.996193 1.45102 -71.3006 
-0.027629 -0.00394833 22.522 
0 0 19.3579 
24.7322 -3.14585 -147.813 
0 0 19.0973 
0 0 21.3105 
7.33569 2.12039 -24.778 
0 0 19.2196 
0 0 18.857 
2.30913 2.41692 -73.1216 
-5.33282 4.14811 -48.3977 
18.0222 -3.00813 -155.566 
0 0 19.4017 
0 0 19.2623 
0 0 18.9929 
0 0 19.0531 
0 0 19.1563 
1.69755 1.22281 -20.6663 
0 0 23.3197 
1.55525 3.11389 -56.6137 
0.00933148 0.000636093 26.6466 
0 0 22.5249 
-54.3927 -11.2456 -204.205 
0 0 23.2832 
0 0 25.7198 
-1.27014 3.42579 -17.4022 
0 0 23.5547 
0 0 23.3456 
1.63688 3.36387 -43.8181 
-2.31487 -2.9431 -33.4886 
11.1191 -2.35373 -115.566 
0 0 23.7537 
0 0 23.5349 
0 0 22.1052 
0 0 23.1949 
0 0 23.3844 
2.21503 -0.692546 -11.2835 
0 0 21.2899 
-3.35134 -1.58701 -72.825 
0.00270668 0.0011419 24.1504 
0 0 19.2686 
-3.80888 0.135917 -121.475 
0 0 21.2298 
0 0 23.4287 
-2.11007 0.0696372 -4.27004 
0 0 21.6989 
0 0 22.3134 
1.55248 3.15392 -21.268 
-0.403765 -3.09619 -29.8113 
11.0103 7.53556 -65.7438 
0 0 21.9713 
0 0 21.6243 
0 0 18.8555 
0 0 21.0851 
0 0 21.3929 
1.16893 0.489298 -6.71417 
0 0 12.0867 
-6.32654 -0.451226 -95.4082 
-0.00326815 -0.000301797 14.5318 
0 0 9.27772 
-2.25259 -3.51486 -56.8811 
0 0 11.9537 
0 0 13.8805 
0 0 12.5978 
0 0 15.0543 
0.896716 0.879706 -8.2752 
23.4548 -5.88288 -60.2885 
2.23958 3.9615 -36.7932 
0 0 13.0726 
0 0 12.5497 
0 0 8.88195 
0 0 11.7583 
0 0 12.19 
0 0 -0.413873 
16.2147 5.92185 -46.0786 
0.000446016 -4.66214e-05 1.92949 
0 0 -3.25043 
2.39222 3.44421 -21.0936 
0 0 -0.664027 
0 0 1.38092 
0.490134 1.40522 -29.4682 
0 0 0.0740203 
0 0 5.07404 
0.0874542 0.25464 0.238947 
11.1359 24.2518 -156.723 
6.68176 3.05379 -12.5038 
0 0 0.871378 
0 0 0.157197 
0 0 -3.68527 
0 0 -0.889113 
0 0 -0.359221 
0 0 -9.08878 
-4.418e-05 3.54765e-07 -6.62131 
0 0 -11.4473 
0 0 -9.45931 
0 0 -6.93005 
0 0 -8.70533 
0 0 -1.35483 
0 0 -7.57547 
0 0 -8.44771 
0 0 -11.9842 
0 0 -9.69306 
0 0 -9.10476 
0 0 13.1597 
6.37577 7.7607 246.904 
0.536088 0.789247 185.254 
31.103 -10.2225 50.8552 
-27.6477 11.3366 108.799 
-23.2581 -1.73285 47.268 
0 0 13.1158 
33.5904 -0.0617722 202.308 
0 0 12.9456 
2.81804 -1.88446 143.28 
4.47811 -1.67317 27.0612 
-4.88652 1.95927 116.838 
14.4248 8.12373 34.7455 
-19.0619 21.1565 158.445 
0 0 12.9675 
0 0 12.94 
-0.000653412 -6.8705e-05 12.2838 
0 0 12.9604 
0 0 13.1206 
0 0 12.9337 
0 0 13.0096 
0 0 13.0351 
0 0 13.0699 
0.29492 0.615172 0.354268 
22.7666 10.6347 42.4996 
6.18308 4.20236 22.3468 
4.86874 -0.383445 6.96931 
-0.52237 78.3857 235.499 
-0.671964 3.36848 12.3112 
-1.52484 -2.90733 6.10802 
0 0 -6.84589 
0 0 1.40661 
0 0 -7.58234 
0.000132642 8.90466e-06 -4.95493 
0 0 -9.44213 
0 0 -8.19358 
0 0 -7.51766 
0 0 -7.961 
0 0 -7.22125 
0 0 -5.88902 
0 0 -4.98969 
0 0 -10.0811 
VECTORS moment double
0 0 0 
0 0 0 
0 0 0 
0 0 0 
0 0 0 
0 0 0 
0 0 0 
0 0 0 
0 0 0 
0 0 0 
0 0 0 
0 0 0 
0 0 0 
0 0 0 
0 0 0 
0 0 0 
0 0 0 
0 0 0 
0 0 0 
0 0 0 
0 0 0 
0 0 0 
0 0 0 
0 0 0 
0 0 0 
0 0 0 
0 0 0 
0 0 0 
0 0 0 
0 0 0 
0 0 0 
0 0 0 
0 0 0 
0 0 0 
0 0 0 
0 0 0 
0 0 0 
0 0 0 
0 0 0 
0 0 0 
0 0 0 
0 0 0 
0 0 0 
0 0 0 
0 0 0 
0 0 0 
0 0 0 
0 0 0 
0 0 0 
0 0 0 
0 0 0 
0 0 0 
0 0 0 
0 0 0 
0 0 0 
0 0 0 
0 0 0 
0 0 0 
0 0 0 
0 0 0 
0 0 0 
0 0 0 
0 0 0 
0 0 0 
0 0 0 
0 0 0 
0 0 0 
0 0 0 
0 0 0 
0 0 0 
0 0 0 
0 0 0 
0 0 0 
0 0 0 
0 0 0 
0 0 0 
0 0 0 
0 0 0 
0 0 0 
0 0 0 
0 0 0 
0 0 0 
0 0 0 
0 0 0 
0 0 0 
0 0 0 
0 0 0 
0 0 0 
0 0 0 
0 0 0 
0 0 0 
0 0 0 
0 0 0 
0 0 0 
0 0 0 
0 0 0 
0 0 0 
0 0 0 
0 0 0 
0 0 0 
0 0 0 
0 0 0 
0 0 0 
0 0 0 
0 0 0 
0 0 0 
0 0 0 
0 0 0 
0 0 0 
0 0 0 
0 0 0 
0 0 0 
0 0 0 
0 0 0 
0 0 0 
0 0 0 
0 0 0 
0 0 0 
0 0 0 
0 0 0 
0 0 0 
0 0 0 
0 0 0 
0 0 0 
0 0 0 
0 0 0 
0 0 0 
0 0 0 
0 0 0 
0 0 0 
0 0 0 
0 0 0 
0 0 0 
0 0 0 
0 0 0 
0 0 0 
0 0 0 
0 0 0 
0 0 0 
0 0 0 
0 0 0 
0 0 0 
0 0 0 
0 0 0 
0 0 0 
0 0 0 
0 0 0 
0 0 0 
0 0 0 
0 0 0 
0 0 0 
0 0 0 
0 0 0 
0 0 0 
0 0 0 
0 0 0 
0 0 0 
0 0 0 
0 0 0 
0 0 0 
0 0 0 
0 0 0 
0 0 0 
0 0 0 
0 0 0 
0 0 0 
0 0 0 
0 0 0 
0 0 0 
0 0 0 
0 0 0 
0 0 0 
0 0 0 
0 0 0 
0 0 0 
0 0 0 
0 0 0 
0 0 0 
0 0 0 
0 0 0 
0 0 0 
0 0 0 
0 0 0 
0 0 0 
0 0 0 
0 0 0 
0 0 0 
0 0 0 
0 0 0 
0 0 0 
0 0 0 
0 0 0 
0 0 0 
0 0 0 
0 0 0 
0 0 0 
0 0 0 
0 0 0 
0 0 0 
0 0 0 
SCALARS num_collisions int 1
LOOKUP_TABLE default
1 
1 
1 
1 
1 
1 
1 
1 
1 
1 
1 
1 
1 
1 
1 
1 
1 
1 
1 
1 
1 
1 
1 
1 
1 
1 
1 
1 
1 
1 
1 
1 
1 
1 
1 
1 
1 
1 
1 
1 
1 
1 
1 
1 
1 
1 
1 
1 
1 
1 
1 
1 
1 
1 
1 
1 
1 
1 
1 
1 
1 
1 
1 
1 
1 
1 
1 
1 
1 
1 
1 
1 
1 
1 
1 
1 
1 
1 
1 
1 
1 
1 
1 
1 
1 
1 
1 
1 
1 
1 
1 
1 
1 
1 
1 
1 
1 
1 
1 
1 
1 
1 
1 
1 
1 
1 
1 
1 
1 
1 
1 
1 
1 
1 
1 
1 
1 
1 
1 
1 
1 
1 
1 
1 
1 
1 
1 
1 
1 
1 
1 
1 
1 
1 
1 
1 
1 
1 
1 
1 
1 
1 
1 
1 
1 
1 
1 
1 
1 
1 
1 
1 
1 
1 
1 
1 
1 
1 
1 
1 
1 
1 
1 
1 
1 
1 
1 
1 
1 
1 
1 
1 
1 
1 
1 
1 
1 
1 
1 
1 
1 
1 
1 
1 
1 
1 
1 
1 
1 
1 
1 
1 
1 
1 
1 
1 
1 
1 
1 
1 
VECTORS pos double
-0.390436 -0.407976 -0.424105 
-0.395742 -0.0037306 -0.42453 
-0.269342 -0.40403 -0.422613 
-0.193642 0.213964 -0.427194 
-0.201298 0.39513 -0.455271 
-0.0240619 -0.37951 -0.418889 
0.0031665 0.366456 -0.446076 
0.196953 -0.398818 -0.42568 
0.185347 -0.192444 -0.423673 
0.209369 0.000272256 -0.425732 
-0.379187 -0.406378 -0.348341 
-0.403333 -0.203333 -0.299763 
-0.389393 0.00158694 -0.346669 
-0.403009 0.197044 -0.299781 
-0.402763 0.397237 -0.29976 
-0.346535 -0.408657 -0.335348 
-0.305912 -0.414649 -0.329568 
-0.203538 -0.203538 -0.299761 
-0.203218 -0.00321788 -0.299771 
-0.185755 0.406045 -0.396215 
-0.00971401 -0.398458 -0.348565 
-0.00366947 -0.203669 -0.299763 
-0.00360232 -0.00360232 -0.299775 
-0.00871773 0.21716 -0.390672 
0.199355 -0.400855 -0.346634 
0.189864 -0.185587 -0.344544 
0.213737 0.0043193 -0.349773 
0.196913 0.396913 -0.299768 
0.396713 -0.403287 -0.299765 
0.39661 -0.20339 -0.299754 
0.396488 -0.00351175 -0.299761 
0.396508 0.196508 -0.299762 
0.384326 0.341024 -0.386881 
-0.388958 -0.403318 -0.270958 
-0.403333 -0.203333 -0.199769 
-0.379149 -0.00827977 -0.266996 
-0.402718 0.197075 -0.199788 
-0.402763 0.397237 -0.199765 
-0.16238 -0.402993 -0.387392 
-0.203538 -0.203538 -0.199767 
-0.203218 -0.00321788 -0.199776 
-0.187829 0.410874 -0.326027 
0.0278917 -0.405071 -0.265591 
-0.00366947 -0.203669 -0.199768 
-0.00360232 -0.00360232 -0.199781 
0.203728 -0.396869 -0.266508 
0.18683 -0.20398 -0.278424 
0.213872 0.00246381 -0.273387 
0.196913 0.396913 -0.199774 
0.396713 -0.403287 -0.199771 
0.39661 -0.20339 -0.19976 
0.396488 -0.00351175 -0.199766 
0.396508 0.196508 -0.199768 
-0.392626 -0.399403 -0.189319 
-0.403333 -0.203333 -0.0997783 
-0.387717 -0.0024613 -0.18735 
-0.402956 0.197052 -0.0997949 
-0.402763 0.397237 -0.0997746 
-0.184333 -0.407746 -0.329344 
-0.203538 -0.203538 -0.0997765 
-0.203218 -0.00321788 -0.0997849 
-0.217664 0.412869 -0.240472 
-0.00366947 -0.203669 -0.0997779 
-0.00360232 -0.00360232 -0.0997908 
0.206339 -0.396876 -0.191467 
0.197625 -0.222739 -0.169616 
0.21053 0.0011267 -0.198504 
0.196913 0.396913 -0.0997832 
0.396713 -0.403287 -0.0997801 
0.39661 -0.20339 -0.0997693 
0.396488 -0.00351175 -0.099776 
0.396508 0.196508 -0.0997776 
-0.389632 -0.403064 -0.111533 
-0.403333 -0.203333 0.000207544 
-0.386339 -0.0015957 -0.101768 
-0.402977 0.197044 0.000193533 
-0.402763 0.397237 0.000211028 
-0.224296 -0.406244 -0.260159 
-0.203538 -0.203538 0.000209229 
-0.203218 -0.00321788 0.000201942 
-0.212819 0.388752 -0.172019 
-0.00366947 -0.203669 0.000207981 
-0.00360232 -0.00360232 0.000195004 
0.205627 -0.392083 -0.114196 
0.202939 -0.215112 -0.0812302 
0.205924 0.0113914 -0.121741 
0.196913 0.396913 0.000202995 
0.396713 -0.403287 0.000205863 
0.39661 -0.20339 0.000215897 
0.396488 -0.00351175 0.000209688 
0.396508 0.196508 0.000208209 
-0.390758 -0.395078 -0.0317691 
-0.403333 -0.203333 0.100187 
-0.393027 -0.00919874 -0.0258447 
-0.402936 0.19705 0.100175 
-0.402763 0.397237 0.10019 
-0.19742 -0.40907 -0.148449 
-0.203538 -0.203538 0.100188 
-0.203218 -0.00321788 0.100182 
-0.211215 0.411857 -0.10224 
-0.00366947 -0.203669 0.100187 
-0.00360232 -0.00360232 0.100175 
0.199402 -0.397688 -0.0395297 
0.213069 -0.199455 -0.00845403 
0.2059 0.00665486 -0.0457458 
0.196913 0.396913 0.100183 
0.396713 -0.403287 0.100185 
0.39661 -0.20339 0.100194 
0.396488 -0.00351175 0.100189 
0.396508 0.196508 0.100187 
-0.390071 -0.395654 0.0468104 
-0.403333 -0.203333 0.200158 
-0.391764 0.00240852 0.0514555 
-0.402951 0.19705 0.200149 
-0.402763 0.397237 0.20016 
-0.205003 -0.398771 -0.073362 
-0.203538 -0.203538 0.200159 
-0.203218 -0.00321788 0.200154 
-0.00366947 -0.203669 0.200158 
-0.00360232 -0.00360232 0.200147 
0.203037 -0.400465 0.0491377 
0.203954 -0.193967 0.0876603 
0.211628 0.00604068 0.0302141 
0.196913 0.396913 0.200154 
0.396713 -0.403287 0.200157 
0.39661 -0.20339 0.200163 
0.396488 -0.00351175 0.200159 
0.396508 0.196508 0.200158 
-0.403333 -0.203333 0.300121 
-0.391684 -0.00379838 0.12833 
-0.402951 0.197049 0.300114 
-0.402763 0.397237 0.300122 
-0.212361 -0.406209 0.0487331 
-0.203538 -0.203538 0.300122 
-0.203218 -0.00321788 0.300118 
0.00123606 -0.413064 0.154836 
-0.00366947 -0.203669 0.300121 
-0.00360232 -0.00360232 0.300112 
0.187223 -0.390173 0.122194 
0.183413 -0.201281 0.175338 
0.218417 0.006409 0.105693 
0.196913 0.396913 0.300118 
0.396713 -0.403287 0.30012 
0.39661 -0.20339 0.300124 
0.396488 -0.00351175 0.300122 
0.396508 0.196508 0.300121 
-0.403333 -0.203333 0.400078 
-0.40295 0.19705 0.400074 
-0.402763 0.397237 0.400079 
-0.203538 -0.203538 0.400079 
-0.203218 -0.00321788 0.400076 
-0.00366947 -0.203669 0.400079 
-0.00360232 -0.00360232 0.400073 
0.196913 0.396913 0.400077 
0.396713 -0.403287 0.400078 
0.39661 -0.20339 0.40008 
0.396488 -0.00351175 0.400079 
0.396508 0.196508 0.400079 
-0.402763 0.397237 -0.5 
0.20567 -0.00248509 -0.500063 
-0.395035 -0.00932578 -0.500051 
-0.0351206 0.383814 -0.500009 
-0.00482022 -0.387924 -0.500018 
-0.137181 0.406589 -0.500012 
0.39661 -0.20339 -0.5 
-0.404425 -0.401169 -0.500044 
0.396508 0.196508 -0.5 
0.194263 -0.39559 -0.500037 
-0.195148 0.213998 -0.500006 
0.171948 -0.194528 -0.500028 
-0.236965 0.368641 -0.500004 
-0.260736 -0.419219 -0.500037 
0.396488 -0.00351175 -0.5 
-0.403333 -0.203333 -0.5 
-0.403675 0.196995 -0.5 
-0.203538 -0.203538 -0.5 
-0.203218 -0.00321788 -0.5 
-0.00366947 -0.203669 -0.5 
-0.00360232 -0.00360232 -0.5 
0.196913 0.396913 -0.5 
0.396713 -0.403287 -0.5 
0.376124 0.446289 -0.5 
0.346517 0.336231 -0.500046 
-0.0282187 0.215049 -0.500005 
0.111856 0.212366 -0.500002 
-0.163312 -0.434154 -0.500049 
0.0391186 0.167015 -0.500003 
-0.284843 0.199782 -0.500001 
0.396713 -0.403287 0.5 
-0.00360232 -0.00360232 0.5 
0.396508 0.196508 0.5 
-0.40295 0.19705 0.5 
-0.402763 0.397237 0.5 
0.396488 -0.00351175 0.5 
-0.403333 -0.203333 0.5 
-0.203538 -0.203538 0.5 
-0.00366947 -0.203669 0.5 
0.196913 0.396913 0.5 
-0.203218 -0.00321788 0.5 
0.39661 -0.20339 0.5 
VECTORS dir_n double
-0.0640297 -0.00781798 -0.997917 
0.157643 -0.0398272 -0.986693 
0.524006 -0.22881 -0.820404 
0.495214 0.0396719 -0.867865 
-0.761343 -0.499603 -0.413223 
-0.144337 -0.14817 -0.978372 
-0.526332 0.367893 -0.76657 
0.217465 -0.0389604 -0.97529 
-0.200623 0.101268 -0.97442 
-0.145245 -0.0285331 -0.988984 
0.152672 0.115978 -0.981448 
1.75231e-16 0 1 
0.117727 -0.102114 -0.987782 
0.00909665 0.000818864 0.999958 
1.6239e-16 0 1 
0.88887 -0.383965 -0.249963 
-0.509567 -0.0103063 -0.860369 
1.7589e-16 0 1 
1.55676e-16 0 1 
0.483839 -0.568697 -0.665194 
-0.225271 0.146323 -0.963246 
1.75456e-16 0 1 
1.81464e-16 0 1 
0.244474 0.167805 -0.955026 
0.400711 0.0640969 -0.913959 
0.0168493 0.064898 -0.99775 
-0.105846 -0.0667234 -0.992141 
1.72847e-16 0 1 
1.74197e-16 0 1 
1.6594e-16 0 1 
1.76102e-16 0 1 
1.75403e-16 0 1 
0.146728 -0.75027 0.644644 
0.288346 0.142993 -0.946789 
8.12287e-17 0 1 
0.371071 0.00827119 -0.928568 
-0.00326938 -0.000195966 0.999995 
7.73301e-17 0 1 
0.0777375 0.139717 -0.987135 
8.14607e-17 0 1 
7.23827e-17 0 1 
0.446433 0.299072 -0.843358 
-0.39112 -0.264349 -0.881558 
8.11651e-17 0 1 
8.32419e-17 0 1 
-0.222168 0.203916 -0.953446 
-0.269295 0.477812 -0.836167 
-0.0205204 -0.0425189 -0.998885 
8.01809e-17 0 1 
8.07537e-17 0 1 
7.89067e-17 0 1 
8.15863e-17 0 1 
8.1239e-17 0 1 
0.0764838 0.0892836 -0.993065 
5.2262e-17 0 1 
0.390211 0.0665276 -0.918319 
-0.00149818 -0.000269832 0.999999 
5.16586e-17 0 1 
0.654596 -0.340043 -0.675185 
5.23635e-17 0 1 
4.69253e-17 0 1 
0.482954 0.55894 -0.674049 
5.20303e-17 0 1 
5.30308e-17 0 1 
0.0267484 0.19379 -0.980678 
-0.0928889 0.468027 -0.878819 
0.0756779 0.0629844 -0.995141 
5.15418e-17 0 1 
5.19149e-17 0 1 
5.26513e-17 0 1 
5.24848e-17 0 1 
5.2202e-17 0 1 
0.136916 0.111299 -0.98431 
4.28822e-17 0 1 
0.456916 0.0725206 -0.886549 
0.00107631 0.00011266 0.999999 
4.43953e-17 0 1 
0.0681572 -0.180424 -0.981225 
4.29495e-17 0 1 
3.88806e-17 0 1 
-0.120409 -0.124739 -0.984856 
4.24543e-17 0 1 
4.28346e-17 0 1 
0.264133 0.161605 -0.950851 
-0.121872 -0.0896982 -0.988484 
0.0472018 0.0643936 -0.996808 
4.20987e-17 0 1 
4.249e-17 0 1 
4.52381e-17 0 1 
4.31129e-17 0 1 
4.27636e-17 0 1 
0.123989 0.169617 -0.977679 
4.69706e-17 0 1 
-0.110532 0.103585 -0.98846 
-0.000256909 1.34263e-05 1 
5.18978e-17 0 1 
-0.366961 -0.523124 -0.769208 
4.71036e-17 0 1 
4.26827e-17 0 1 
0.325659 0.0276216 -0.945084 
4.60853e-17 0 1 
4.48162e-17 0 1 
0.484738 0.181367 -0.855649 