# vtk DataFile Version 2.0
Generated by NetDEM
ASCII 
DATASET POLYDATA
POINTS 644 double
-0.418464 -0.40644 -0.463511 
-0.426347 -0.404487 -0.391917 
-0.41351 -0.00599876 -0.465027 
-0.413146 -0.0147565 -0.38665 
-0.450004 0.11787 -0.450022 
-0.379619 0.079747 -0.390089 
-0.450004 0.11787 -0.450022 
-0.45 0.176571 -0.369085 
-0.449212 0.348054 -0.450074 
-0.356959 0.372854 -0.405407 
-0.449212 0.348054 -0.450074 
-0.4395 0.275088 -0.38247 
-0.271046 -0.429521 -0.459136 
-0.328371 -0.411206 -0.398041 
-0.271046 -0.429521 -0.459136 
-0.258045 -0.43058 -0.358822 
-0.307185 -0.20557 -0.450019 
-0.223511 -0.17966 -0.401784 
-0.307185 -0.20557 -0.450019 
-0.311558 -0.211498 -0.350298 
-0.202052 -0.00727117 -0.450007 
-0.17501 0.0789021 -0.450172 
-0.173285 0.171808 -0.463815 
-0.17501 0.0789021 -0.450172 
-0.252751 0.368061 -0.463656 
-0.356959 0.372854 -0.405407 
-0.252751 0.368061 -0.463656 
-0.230292 0.324337 -0.393599 
-0.0547176 -0.39832 -0.461214 
-0.0860115 -0.387811 -0.394815 
-0.0547176 -0.39832 -0.461214 
0.0434874 -0.439516 -0.44906 
-0.0557896 -0.0864087 -0.450029 
0.0508095 -0.0918284 -0.44992 
0.0351091 0.178801 -0.452341 
0.110597 0.136359 -0.398961 
-0.0310046 0.319998 -0.441163 
-0.00603099 0.414927 -0.366271 
0.193044 -0.400859 -0.462841 
0.20541 -0.412471 -0.389384 
0.168773 -0.20974 -0.462921 
0.164994 -0.204992 -0.38936 
0.172911 -0.00856447 -0.462841 
0.174798 0.0084888 -0.384856 
0.160179 0.209582 -0.465049 
0.118195 0.301061 -0.424637 
0.303562 0.404376 -0.411983 
0.288172 0.375596 -0.31752 
0.303562 0.404376 -0.411983 
0.330692 0.308145 -0.412558 
0.450049 -0.407426 -0.450078 
0.397295 -0.450036 -0.376663 
0.430906 -0.301555 -0.450071 
0.438316 -0.35476 -0.365784 
0.338996 -0.0103336 -0.450009 
0.252548 -0.0582029 -0.434681 
0.381239 0.090959 -0.450032 
0.323588 0.0641882 -0.372836 
0.381239 0.090959 -0.450032 
0.450013 0.138388 -0.395116 
-0.426347 -0.404487 -0.391917 
-0.328371 -0.411206 -0.398041 
-0.426347 -0.404487 -0.391917 
-0.434777 -0.438339 -0.326005 
-0.413146 -0.0147565 -0.38665 
-0.322978 -0.0138812 -0.350499 
-0.413146 -0.0147565 -0.38665 
-0.451374 -0.0387598 -0.312921 
-0.45 0.176571 -0.369085 
-0.4395 0.275088 -0.38247 
-0.45 0.176571 -0.369085 
-0.444776 0.0961494 -0.309898 
-0.328371 -0.411206 -0.398041 
-0.272356 -0.325735 -0.361916 
-0.149794 -0.101051 -0.176542 
-0.0773669 -0.156225 -0.2178 
-0.310277 0.155408 -0.462274 
-0.284846 0.111657 -0.390162 
-0.144426 0.402914 -0.445947 
-0.144869 0.442612 -0.328606 
-0.144426 0.402914 -0.445947 
-0.219819 0.442554 -0.399896 
-0.0860115 -0.387811 -0.394815 
-0.102233 -0.306987 -0.3618 
-0.0860115 -0.387811 -0.394815 
-0.0131287 -0.343043 -0.321519 
0.319303 -0.238744 -0.0922289 
0.298737 -0.326887 -0.13258 
0.319303 -0.238744 -0.0922289 
0.357616 -0.21511 -0.00294168 
0.0256652 0.259856 -0.449783 
-0.0361257 0.223587 -0.382466 
0.118195 0.301061 -0.424637 
0.0649034 0.395939 -0.407609 
0.20541 -0.412471 -0.389384 
0.206222 -0.43418 -0.316925 
0.20541 -0.412471 -0.389384 
0.259946 -0.321692 -0.34758 
0.164994 -0.204992 -0.38936 
0.210774 -0.199973 -0.304288 
0.164994 -0.204992 -0.38936 
0.160727 -0.305518 -0.374296 
0.174798 0.0084888 -0.384856 
0.162633 0.0510565 -0.326374 
0.195564 0.112265 -0.456457 
0.27383 0.0667867 -0.443945 
0.195564 0.112265 -0.456457 
0.260235 0.176679 -0.44575 
0.195564 0.112265 -0.456457 
0.110597 0.136359 -0.398961 
0.288172 0.375596 -0.31752 
0.249144 0.449944 -0.263285 
0.397295 -0.450036 -0.376663 
0.450004 -0.448304 -0.291707 
0.438316 -0.35476 -0.365784 
0.450059 -0.312059 -0.276258 
0.450013 0.138388 -0.395116 
0.4498 0.0553531 -0.339429 
0.450013 0.138388 -0.395116 
0.383448 0.166702 -0.326081 
0.425075 0.339601 -0.456366 
0.438162 0.255038 -0.459983 
0.425075 0.339601 -0.456366 
0.430046 0.366619 -0.376088 
-0.434777 -0.438339 -0.326005 
-0.436156 -0.452106 -0.243594 
-0.322978 -0.0138812 -0.350499 
-0.314759 -0.0267228 -0.255194 
-0.322978 -0.0138812 -0.350499 
-0.247485 -0.00138118 -0.346203 
-0.291688 0.26535 -0.450042 
-0.322671 0.234278 -0.360221 
-0.4395 0.275088 -0.38247 
-0.422279 0.259992 -0.285167 
-0.182215 -0.372388 -0.452016 
-0.160362 -0.446497 -0.390661 
0.206749 -0.327874 -0.209799 
0.255648 -0.298843 -0.277056 
-0.347744 0.334878 -0.330532 
-0.356959 0.372854 -0.405407 
-0.347744 0.334878 -0.330532 
-0.286749 0.318462 -0.268193 
0.0434874 -0.439516 -0.44906 
0.0745023 -0.347393 -0.398169 
0.213622 -0.28131 -0.020207 
0.150183 -0.213132 -0.0564499 
-0.0361257 0.223587 -0.382466 
0.00658496 0.293449 -0.333359 
0.255633 0.330924 -0.463848 
0.330692 0.308145 -0.412558 
0.255633 0.330924 -0.463848 
0.206887 0.385282 -0.393743 
0.206222 -0.43418 -0.316925 
0.264551 -0.439452 -0.235162 
0.0508095 -0.0918284 -0.44992 
0.133755 -0.0978756 -0.396886 
0.162633 0.0510565 -0.326374 
0.127808 0.0637615 -0.263252 
0.27383 0.0667867 -0.443945 
0.323588 0.0641882 -0.372836 
0.110597 0.136359 -0.398961 
0.0509472 0.117494 -0.32541 
0.378716 -0.216205 -0.450065 
0.450003 -0.207267 -0.380532 
0.378716 -0.216205 -0.450065 
0.336226 -0.177488 -0.368279 
0.381968 -0.107056 -0.450043 
0.350381 -0.0777888 -0.359809 
0.381968 -0.107056 -0.450043 
0.449995 -0.105178 -0.376795 
0.45002 0.233641 -0.364615 
0.448875 0.219382 -0.265687 
0.45002 0.233641 -0.364615 
0.438162 0.255038 -0.459983 
-0.436156 -0.452106 -0.243594 
-0.393054 -0.440664 -0.166751 
-0.284846 0.111657 -0.390162 
-0.230703 0.175252 -0.335193 
-0.347478 0.146125 -0.320097 
-0.322671 0.234278 -0.360221 
-0.160362 -0.446497 -0.390661 
-0.258045 -0.43058 -0.358822 
-0.160362 -0.446497 -0.390661 
-0.162819 -0.384105 -0.325681 
-0.0566211 0.126449 -0.441979 
0.0211952 0.0475754 -0.450056 
-0.0566211 0.126449 -0.441979 
-0.134671 0.143452 -0.388071 
-0.356959 0.372854 -0.405407 
-0.45 0.380329 -0.354916 
-0.356959 0.372854 -0.405407 
-0.314223 0.436779 -0.342522 
0.0963786 -0.449715 -0.343841 
0.0745023 -0.347393 -0.398169 
0.450003 -0.319596 -0.0121887 
0.406772 -0.28739 -0.0963829 
0.450003 -0.319596 -0.0121887 
0.448683 -0.384001 0.0642771 
0.0211952 0.0475754 -0.450056 
0.0318397 0.0424359 -0.353808 
0.0649034 0.395939 -0.407609 
-0.0020911 0.43871 -0.465048 
0.264551 -0.439452 -0.235162 
0.348059 -0.411657 -0.298471 
0.264551 -0.439452 -0.235162 
0.303735 -0.38576 -0.200741 
0.260235 0.176679 -0.44575 
0.329429 0.209111 -0.398758 
0.260235 0.176679 -0.44575 
0.23604 0.231353 -0.377116 
0.155449 0.450004 -0.450006 
0.206887 0.385282 -0.393743 
0.357447 -0.31496 -0.322436 
0.392778 -0.224091 -0.300285 
0.449995 -0.105178 -0.376795 
0.438054 -0.0374808 -0.304194 
0.383448 0.166702 -0.326081 
0.329429 0.209111 -0.398758 
0.430046 0.366619 -0.376088 
0.398945 0.298388 -0.308042 
0.430046 0.366619 -0.376088 
0.437899 0.397921 -0.293164 
-0.393054 -0.440664 -0.166751 
-0.462369 -0.45215 -0.111695 
-0.393054 -0.440664 -0.166751 
-0.376583 -0.368449 -0.107651 
-0.376583 -0.368449 -0.107651 
-0.328832 -0.440235 -0.029475 
-0.314759 -0.0267228 -0.255194 
-0.364306 0.00902864 -0.188766 
-0.0773669 -0.156225 -0.2178 
0.00770523 -0.134271 -0.170331 
-0.0773669 -0.156225 -0.2178 
-0.0892987 -0.241655 -0.268333 
-0.00611111 -0.022765 -0.392583 
0.0318397 0.0424359 -0.353808 
0.0318397 0.0424359 -0.353808 
0.0509472 0.117494 -0.32541 
0.259946 -0.321692 -0.34758 
0.255648 -0.298843 -0.277056 
0.0432751 0.072439 -0.251325 
0.0509472 0.117494 -0.32541 
0.0432751 0.072439 -0.251325 
0.00423254 0.113222 -0.180961 
0.23604 0.231353 -0.377116 
0.201506 0.310812 -0.334264 
0.23604 0.231353 -0.377116 
0.226325 0.183995 -0.316306 
0.348998 0.449973 -0.258226 
0.249144 0.449944 -0.263285 
0.450003 -0.207267 -0.380532 
0.392778 -0.224091 -0.300285 
-0.462369 -0.45215 -0.111695 
-0.446426 -0.453677 0.0160811 
-0.314223 0.436779 -0.342522 
-0.380814 0.450005 -0.269119 
-0.314223 0.436779 -0.342522 
-0.219819 0.442554 -0.399896 
-0.314223 0.436779 -0.342522 
-0.236322 0.437605 -0.27986 
-0.162819 -0.384105 -0.325681 
-0.049176 -0.394837 -0.261408 
-0.162819 -0.384105 -0.325681 
-0.21688 -0.365497 -0.219821 
-0.0892987 -0.241655 -0.268333 
-0.143232 -0.321536 -0.275375 
-0.134671 0.143452 -0.388071 
-0.192547 0.0786676 -0.323972 
-0.230292 0.324337 -0.393599 
-0.167538 0.35395 -0.320403 
-0.230292 0.324337 -0.393599 
-0.208059 0.274154 -0.324755 
-0.102233 -0.306987 -0.3618 
-0.143232 -0.321536 -0.275375 
0.444351 0.0499415 -0.147505 
0.445119 0.0803452 -0.242748 
0.444351 0.0499415 -0.147505 
0.381784 0.0179228 -0.0763818 
0.237186 -0.143318 -0.383981 
0.336226 -0.177488 -0.368279 
0.237186 -0.143318 -0.383981 
0.133755 -0.0978756 -0.396886 
0.237186 -0.143318 -0.383981 
0.252751 -0.0746873 -0.332142 
0.201506 0.310812 -0.334264 
0.206887 0.385282 -0.393743 
0.206887 0.385282 -0.393743 
0.146369 0.450012 -0.347394 
0.336226 -0.177488 -0.368279 
0.392778 -0.224091 -0.300285 
0.4498 0.0553531 -0.339429 
0.438054 -0.0374808 -0.304194 
0.4498 0.0553531 -0.339429 
0.445119 0.0803452 -0.242748 
-0.446426 -0.453677 0.0160811 
-0.440323 -0.411376 0.119173 
-0.143232 -0.321536 -0.275375 
-0.159196 -0.298922 -0.173858 
-0.143232 -0.321536 -0.275375 
-0.21688 -0.365497 -0.219821 
-0.321432 0.35957 -0.104561 
-0.402065 0.34219 -0.161096 
-0.108313 0.275318 -0.310344 
-0.129569 0.18897 -0.31345 
-0.108313 0.275318 -0.310344 
-0.038897 0.267392 -0.230584 
-0.0131287 -0.343043 -0.321519 
-0.049176 -0.394837 -0.261408 
0.150183 -0.213132 -0.0564499 
0.0816321 -0.17984 -0.121049 
0.262257 -0.121929 -0.239357 
0.335488 -0.0537544 -0.263901 
0.262257 -0.121929 -0.239357 
0.306778 -0.162103 -0.15921 
0.226325 0.183995 -0.316306 
0.15369 0.229598 -0.27005 
0.392778 -0.224091 -0.300285 
0.446204 -0.232205 -0.216139 
0.350381 -0.0777888 -0.359809 
0.335488 -0.0537544 -0.263901 
0.323588 0.0641882 -0.372836 
0.363213 0.0401614 -0.284229 
0.398945 0.298388 -0.308042 
0.315669 0.243125 -0.304754 
0.446029 0.373817 -0.202855 
0.408532 0.40907 -0.110359 
-0.328832 -0.440235 -0.029475 
-0.242279 -0.441477 -0.0695324 
-0.328832 -0.440235 -0.029475 
-0.344187 -0.415114 0.0627869 
[...]
POINT_DATA 644
SCALARS id int 1
LOOKUP_TABLE default
0
25
2
27
3
103
3
28
4
84
4
54
5
30
5
105
6
31
6
51
7
58
8
58
9
84
9
134
10
35
10
60
12
66
13
69
14
189
15
40
16
41
17
42
18
39
19
44
19
98
20
45
21
46
22
147
23
172
23
48
25
30
25
50
27
52
27
127
28
54
28
178
30
180
32
106
33
78
34
184
34
159
35
135
35
160
36
240
36
111
38
63
39
89
40
65
40
116
41
216
41
91
42
67
43
68
43
93
43
69
44
194
45
145
46
195
48
148
48
97
49
74
49
99
50
75
52
102
52
77
53
154
54
179
55
80
56
241
59
84
59
283
60
110
61
161
63
164
64
98
64
144
65
90
66
166
67
92
68
172
69
138
71
121
71
146
72
171
72
96
73
273
73
74
75
100
78
128
79
154
80
105
80
130
83
88
83
133
84
104
84
129
85
110
86
295
86
261
88
113
89
114
90
120
90
115
93
123
93
118
94
144
95
170
96
222
97
123
99
173
99
149
100
125
100
101
101
175
102
177
106
186
106
131
108
113
113
138
116
241
117
138
117
238
118
143
118
168
119
194
121
170
125
150
129
204
129
159
129
282
130
210
130
205
131
155
133
203
134
209
134
153
135
155
137
272
137
372
141
146
141
166
141
322
143
144
144
169
146
170
148
222
148
272
150
350
155
181
155
205
157
328
158
183
158
188
160
210
161
336
167
297
167
192
168
218
170
221
171
297
172
197
173
198
174
224
175
200
175
275
179
329
179
279
179
201
181
251
181
225
182
334
182
333
183
213
184
263
186
336
188
288
188
212
189
263
189
239
195
220
196
271
200
255
202
279
202
233
204
254
205
230
205
255
207
390
209
234
210
235
212
287
212
238
218
243
220
245
220
270
221
296
222
347
223
348
224
249
227
228
227
304
234
258
235
281
235
260
238
337
243
268
243
294
244
344
245
265
246
296
246
371
248
348
248
373
254
304
257
258
259
282
259
333
260
285
262
289
262
344
268
293
273
348
274
324
276
306
278
301
279
303
285
310
285
340
288
289
289
314
301
377
310
335
314
339
316
321
323
348
323
398
324
424
328
329
330
335
334
359
339
364
343
397
362
368
366
420
399
424
28
0
125
0
304
0
3
0
104
0
278
0
174
1
73
1
20
1
296
1
195
1
145
1
196
1
149
1
86
1
48
1
245
2
200
2
75
2
45
2
80
2
175
2
169
3
94
3
204
3
274
3
239
3
159
3
319
3
53
4
17
4
122
4
49
4
55
4
58
4
7
4
0
4
74
4
88
4
22
4
10
4
64
4
114
4
4
4
16
4
24
4
2
4
20
4
72
4
109
4
12
4
8
4
5
4
15
4
38
4
66
4
18
4
71
4
9
4
60
4
21
4
23
4
94
4
68
4
33
4
83
4
29
4
14
4
1
4
3
4
13
4
93
4
43
4
47
4
34
4
6
4
11
4
CELL_DATA 322
VECTORS force double
2.20265 9.43711 -72.7873 
-17.6158 -1.0536 -70.8387 
-0.159203 5.72924 -7.3022 
-11.4962 -23.9311 -25.1036 
-20.5785 -18.0187 -25.3413 
-5.4597 60.5617 -81.4514 
3.97498 -5.49943 -10.1328 
-3.57756 1.42306 -8.55903 
-3.75139 -1.44141 -6.12753 
0.586651 0.771183 -14.7073 
-0.214522 -0.0153068 -0.25982 
-0.230283 0.238282 -1.20306 
-101.267 -9.97378 -244.637 
-691.35 -106.662 -1045.95 
6.89613 -86.4487 -227.493 
-25.6645 -1.12958 -37.3167 
87.3452 28.4292 82.469 
-26.2815 -6.34172 13.3631 
36.5176 -34.9132 -196.278 
10.2785 -82.9282 -278.565 
-4.68537 9.10873 -27.8869 
9.40359 -10.0933 -38.9538 
6.77533 -10.9383 -9.43539 
-342.759 866.592 744.227 
-220.242 446.906 1306.53 
129.427 69.959 -274.32 
-86.3393 -286.907 -1201.83 
1.79639 0.993523 -3.85459 
-2.35431 -18.3789 18.0807 
52.9922 -22.977 110.272 
-3.4823 -1.78262 -5.00766 
5.22104 16.8133 -61.6237 
-15.3974 -0.0582674 -34.4631 
-0.187493 -0.863518 -14.1606 
-6.10526 -50.6301 -3.49845 
0.182765 12.8449 -13.8738 
-0.279863 0.35967 -2.25452 
-105.87 27.7282 4.06658 
-11.5995 -0.706421 -46.7302 
23.5854 7.23443 -83.0201 
36.5286 20.0338 3.88572 
42.2925 -73.1585 -190.181 
-27.9184 -11.486 -43.1437 
2.90017 8.38617 4.80455 
-3.76857 -2.71487 -9.89126 
-54.7378 -106.936 -738.535 
5.35585 -9.92429 0.355603 
-37.0482 -47.6237 81.0005 
-33.1146 -32.9948 219.995 
-0.539215 0.337885 -1.48447 
-1.12733 7.42369 -10.3978 
9.20082 -6.63418 -24.1111 
-25.127 9.147 -9.8054 
-86.1438 -59.3766 -172.853 
-7.66505 -0.637982 -19.8063 
74.239 24.7655 -909.8 
-74.4737 35.964 99.1295 
-429.091 -1043.64 1693.52 
-164.274 5.4984 -119.406 
-167.064 -9.10794 -134.89 
1.54863 21.4997 107.672 
0.758212 -13.5288 51.1599 
3.36126 14.9545 -60.2622 
-7.05669 0.680706 -14.8263 
-2.33374 -0.564738 -5.95865 
9.2136 10.9181 -39.6815 
-16.1902 14.5159 -63.9639 
-17.4717 16.9275 -132.952 
-11.7926 -12.9486 5.95475 
1.49065 0.388958 9.75359 
-3.08275 0.622138 -7.25946 
-14.0144 2.83792 -17.8235 
219.223 -192.388 142.514 
16.1535 -82.7651 517.096 
-173.925 432.575 796.833 
-254.531 82.5513 180.115 
-36.5577 -33.0987 -54.8347 
-322.613 109.478 1.7379 
4.82437 -2.94096 -9.10629 
-1.85358 -2.12882 -11.8246 
33.1605 30.1752 -67.1246 
-326.206 194.422 -132.809 
-569.755 202.838 102.67 
6.17255 -5.34068 -31.6387 
-13.7102 -4.9895 -31.4737 
27.9241 25.5384 -58.9295 
1.37134 -25.2056 93.1639 
-3.97952 -16.8271 -43.5919 
-13.5198 -4.75719 -19.9808 
-1.744 -5.21737 8.67915 
3.79473 -3.81389 -3.49531 
-5.47553 -15.4837 -118.222 
8.66324 4.80532 16.9563 
13.2786 2.79186 -20.6155 
3.11896 1.08487 -21.5245 
-46.8177 -11.7822 -30.8265 
7.40576 -2.68776 13.4106 
18.3423 -23.2866 36.4374 
6.31882 17.2017 -45.3313 
-10.7705 -8.93008 -31.651 
6.05484 -9.48473 14.3564 
8.24852 17.1696 69.6683 
-1.11435 12.4085 32.0564 
118.006 -56.3134 327.387 
110.209 -0.423748 515.109 
-24.8648 31.1964 9.73648 
458.655 -95.4174 -71.9699 
-3.78142 -25.7885 -22.5575 
194.108 10.2389 118.38 
5.03815 -24.3751 -121.623 
-15.908 -59.2433 -154.564 
5.8829 -0.794764 -15.7439 
-5.28918 -10.2692 -20.6232 
-6.64236 -2.63234 -5.40089 
-1.64282 0.746187 -1.82114 
-256.055 -15.6486 -124.699 
38.2366 60.1149 37.2485 
-21.8194 -22.0157 3.15346 
3.25273 -2.90335 -48.2607 
-24.6908 -55.9955 -89.6479 
-0.0128924 11.54 3.56081 
23.9703 -20.8917 -41.7702 
13.3419 -241.51 -103.177 
53.7321 -131.818 -464.129 
13.5776 14.5082 -427.795 
722.527 -143.382 114.018 
0.68279 -2.31995 -16.9757 
18.5684 0.125941 -27.5066 
-42.2843 -0.223741 15.3891 
-24.9966 -22.8744 -22.2925 
8.80235 0.259601 -46.2634 
-24.5355 -31.2116 -74.4587 
6.27868 32.2794 39.2549 
13.1768 11.2494 -11.9887 
116.621 -493.093 1087.06 
-208.818 -380.768 341.36 
44.9728 -58.6601 -200.933 
-8.63921 -10.5287 46.7237 
8.78113 7.51013 -19.1543 
-776.793 944.025 336.861 
-590.914 -326.658 -425.873 
-723.378 274.478 2.63902 
-86.8451 101.157 112.814 
65.5864 -90.8094 -17.6368 
865.509 -226.859 -159.61 
-3.55738 30.3758 -0.592183 
20.2988 -15.5979 -59.5532 
0.673048 -3.06793 -15.4661 
23.5229 -96.2112 -172.585 
38.9663 69.938 40.094 
0.477006 -0.113235 0.246031 
-17.2786 -16.9402 -26.571 
-0.0379945 -116.351 -36.8905 
-20.8628 -7.2184 -34.2636 
177.876 -124.628 113.849 
-2.53115 -0.947765 5.24185 
0.198595 1.60122 -1.89012 
12.1541 -43.1481 174.291 
-180.092 80.3484 -210.834 
6.18977 -4.5502 -17.7273 
-2.31402 3.70835 -22.2047 
0.34139 4.86184 9.23515 
-42.7672 339.607 -577.205 
-11.3978 14.2879 -1.15235 
2.7545 -5.76245 -12.8071 
-0.798533 -2.54735 -8.13003 
-16.8544 9.58068 -22.0551 
3.74033 3.03177 -14.9742 
-19.2893 -95.1864 -44.8654 
42.3616 44.4854 -74.9215 
-12.1386 -12.8673 -68.3719 
10.7986 8.38453 74.7508 
-43.4486 -21.4233 -70.5452 
-12.7462 1.22919 -2.51265 
-198.914 70.9139 -144.643 
10.7585 227.898 41.6818 
-31.377 195.033 31.7927 
-7.25052 43.2251 71.9729 
14.3637 124.655 17.1474 
1720.56 -21.0701 -2726.61 
26.4998 1.23006 -5.60067 
-2.27182 -13.1223 17.5875 
11.4351 -4.41949 9.60993 
-4.74106 0.651037 -1.19127 
13.3097 1.89164 -32.2931 
-2.78363 28.3626 -5.38562 
2.79921 -5.42972 -21.5432 
-0.564297 1.18261 -2.4598 
-224.542 -96.4336 -322.362 
-19.449 5.10361 -67.7274 
-3.90421 0.787146 9.47218 
2.6891 -69.268 54.322 
19.554 -21.1737 -57.2575 
124.896 -1710.21 621.16 
-968.674 -1081.79 1769.1 
-8.40404 -42.9546 0.159659 
2.52825 -3.32444 -6.57344 
-3.66051 3.7597 2.09681 
-47.8983 88.5211 367.873 
-5.59301 6.24397 -13.6225 
15.0001 -13.9076 10.1603 
5.35444 -7.4911 7.47447 
-1.76215 1.22666 -4.11535 
-15.9808 6.40764 -49.4509 
-2.02792 49.4469 -3.90141 
-6.01584 4.14913 -1.29735 
1.43913 4.71558 -3.70058 
-53.4823 -0.396278 16.6795 
-26.0757 433.121 -170.026 
-18.586 8.03728 72.3917 
1.84116 -0.778175 -0.521012 
7.15684 -15.6159 40.9704 
-8.46007 8.44273 -24.0579 
6.33788 -0.193071 -17.9599 
-12.0636 -3.34342 12.1131 
20.8697 -16.2521 21.8102 
-17.6505 15.5559 -56.7868 
-11.5358 1.87328 -32.3942 
-90.2296 16.2446 -17.123 
-88.5259 -31.28 5.23744 
-4.22868 6.57434 -6.49069 
20.6798 27.3604 -57.1063 
-55.7452 518.738 -70.55 
41.7157 22.2436 -39.6769 
-3.15113 0.651992 -0.183226 
-3.14315 -0.0297689 -1.23477 
2.9687 2.85406 -23.5968 
-3.41028 -1.84206 -1.69961 
19.5334 -198.764 -132.089 
120.324 55.7468 -129.438 
-0.114997 -0.176538 -4.29978 
5.43887 4.42836 -16.0856 
-46.1793 -19.0251 -86.8549 
-0.876272 -0.745534 -2.94931 
-0.476576 -16.0418 -11.0966 
2.26355 1.89594 8.76487 
19.35 86.9567 44.3208 
0.490349 2.39842 4.62647 
-3.26456 -0.179489 6.47903 
-1.90405 1.83802 -36.2716 
-0.308873 -3.63503 -63.7722 
-2.11036 0.0926195 -1.79017 
-57.7115 -174.714 187.882 
0.628251 0.486997 -2.72026 
0.67898 2.75274 17.452 
-6.07668 8.83756 6.66089 
2.81366 -0.327459 -1.60329 
20.162 -12.6096 4.3816 
10.7311 13.9578 2.20525 
1.69895 -0.0150594 1.63485 
5.61922 -2.65425 3.92561 
-72.5664 223.155 -67.4218 
-34.3105 -11.201 39.6798 
-53.398 10.5762 -108.072 
-22.6922 -34.6355 -59.9121 
531.074 671.601 -1258.07 
-1.66071 -6.52454 15.6767 
-27.6604 -0.337483 11.1447 
-6.28883 -3.20749 50.3286 
-21.427 18.0707 48.5276 
-163.391 -48.2515 66.6152 
381.217 851.775 -314.406 
-14.3694 34.817 -10.2641 
17.4332 30.8961 -4.76767 
-9.00246 115.191 70.5379 
-14.3133 31.8048 -15.5998 
-3.23228 -5.21066 19.975 
-0.533928 -10.5795 4.26547 
2.64121 -9.50772 1.42823 
1.47698 -6.40577 8.51365 
-216.014 286.059 -76.7732 
-22.5925 -140.222 -92.9193 
24.7468 -89.9683 -8.42772 
-0.0666098 -33.6897 3.56183 
-7.81577 -5.76494 78.7275 
-7.73865 17.0323 59.8433 
-6.98585e-15 3.97928e-14 13.6117 
0.599583 21.1324 185.167 
18.8759 -23.3781 136.106 
-0.861483 0.291893 12.2761 
0.0607712 0.156103 13.8503 
-0.32045 -8.33827 84.1233 
-7.4532 -32.2876 55.1186 
3.02684 -0.446993 51.1309 
-2.69471 -1.49226 17.4655 
-2.32298 93.2814 287.058 
80.9952 101.951 433.37 
9.00085 -11.6419 25.913 
18.4105 -25.5323 143.076 
7.57259 -10.7198 41.9984 
27.8955 -34.1375 15.6013 
18.4733 0.55688 74.7943 
-10.7578 35.4748 15.6011 
7.31336 3.77875 78.8991 
-1.30835 1.27505 13.1751 
96.6075 12.5091 85.262 
0.722559 0.103645 14.6256 
4.14458 -0.108588 34.5376 
-27.2354 63.4139 -80.1318 
121.058 112.478 -329.548 
17.6449 -0.612305 17.3835 
-8.43848 11.165 24.1093 
-51.0788 31.9436 115.043 
-193.466 187.993 -341.029 
7.16502 -2.30078 7.08089 
-2.17053 212.852 -285.015 
55.6806 38.152 127.741 
-2.74044 4.29054 8.83502 
2.41307 5.46096 24.953 
0.729996 -0.632203 63.976 
-6.18394 2.88222 11.5496 
2.22789e-15 -3.84104e-15 13.6117 
16.6279 -55.157 -11.8276 
-0.00391554 -0.0132813 13.702 
-0.901305 -1.94128 43.7957 
-12.5915 16.0704 144.15 
49.8757 151.292 471.177 
-37.2614 -12.4602 46.4219 
-1.15879e-14 1.18755e-15 13.6117 
-47.5335 -11.1992 84.7629 
3.347 0.803692 36.0603 
8.53066e-10 3.84091e-10 13.6117 
VECTORS moment double
0 0 0 
0 0 0 
0 0 0 
0 0 0 
0 0 0 
0 0 0 
0 0 0 
0 0 0 
0 0 0 
0 0 0 
0 0 0 
0 0 0 
0 0 0 
0 0 0 
0 0 0 
0 0 0 
0 0 0 
0 0 0 
0 0 0 
0 0 0 
0 0 0 
0 0 0 
0 0 0 
0 0 0 
0 0 0 
0 0 0 
0 0 0 
0 0 0 
0 0 0 
0 0 0 
0 0 0 
0 0 0 
0 0 0 
0 0 0 
0 0 0 
0 0 0 
0 0 0 
0 0 0 
0 0 0 
0 0 0 
0 0 0 
0 0 0 
0 0 0 
0 0 0 
0 0 0 
0 0 0 
0 0 0 
0 0 0 
0 0 0 
0 0 0 
0 0 0 
0 0 0 
0 0 0 
0 0 0 
0 0 0 
0 0 0 
0 0 0 
0 0 0 
0 0 0 
0 0 0 
0 0 0 
0 0 0 
0 0 0 
0 0 0 
0 0 0 
0 0 0 
0 0 0 
0 0 0 
0 0 0 
0 0 0 
0 0 0 
0 0 0 
0 0 0 
0 0 0 
0 0 0 
0 0 0 
0 0 0 
0 0 0 
0 0 0 
0 0 0 
0 0 0 
0 0 0 
0 0 0 
0 0 0 
0 0 0 
0 0 0 
0 0 0 
0 0 0 
0 0 0 
0 0 0 
0 0 0 
0 0 0 
0 0 0 
0 0 0 
0 0 0 
0 0 0 
0 0 0 
0 0 0 
0 0 0 
0 0 0 
0 0 0 
0 0 0 
0 0 0 
0 0 0 
0 0 0 
0 0 0 
0 0 0 
0 0 0 
0 0 0 
0 0 0 
0 0 0 
0 0 0 
0 0 0 
0 0 0 
0 0 0 
0 0 0 
0 0 0 
0 0 0 
0 0 0 
0 0 0 
0 0 0 
0 0 0 
0 0 0 
0 0 0 
0 0 0 
0 0 0 
0 0 0 
0 0 0 
0 0 0 
0 0 0 
0 0 0 
0 0 0 
0 0 0 
0 0 0 
0 0 0 
0 0 0 
0 0 0 
0 0 0 
0 0 0 
0 0 0 
0 0 0 
0 0 0 
0 0 0 
0 0 0 
0 0 0 
0 0 0 
0 0 0 
0 0 0 
0 0 0 
0 0 0 
0 0 0 
0 0 0 
0 0 0 
0 0 0 
0 0 0 
0 0 0 
0 0 0 
0 0 0 
0 0 0 
0 0 0 
0 0 0 
0 0 0 
0 0 0 
0 0 0 
0 0 0 
0 0 0 
0 0 0 
0 0 0 
0 0 0 
0 0 0 
0 0 0 
0 0 0 
0 0 0 
0 0 0 
0 0 0 
0 0 0 
0 0 0 
0 0 0 
0 0 0 
0 0 0 
0 0 0 
0 0 0 
0 0 0 
0 0 0 
0 0 0 
0 0 0 
0 0 0 
0 0 0 
0 0 0 
0 0 0 
0 0 0 
0 0 0 
0 0 0 
0 0 0 
0 0 0 
0 0 0 
0 0 0 
0 0 0 
0 0 0 
0 0 0 
0 0 0 
0 0 0 
0 0 0 
0 0 0 
0 0 0 
0 0 0 
0 0 0 
0 0 0 
0 0 0 
0 0 0 
0 0 0 
0 0 0 
0 0 0 
0 0 0 
0 0 0 
0 0 0 
0 0 0 
0 0 0 
0 0 0 
0 0 0 
0 0 0 
0 0 0 
0 0 0 
0 0 0 
0 0 0 
0 0 0 
0 0 0 
0 0 0 
0 0 0 
0 0 0 
0 0 0 
0 0 0 
0 0 0 
0 0 0 
0 0 0 
0 0 0 
0 0 0 
0 0 0 
0 0 0 
0 0 0 
0 0 0 
0 0 0 
0 0 0 
0 0 0 
0 0 0 
0 0 0 
0 0 0 
0 0 0 
0 0 0 
0 0 0 
0 0 0 
0 0 0 
0 0 0 
0 0 0 
0 0 0 
0 0 0 
0 0 0 
0 0 0 
0 0 0 
0 0 0 
0 0 0 
0 0 0 
0 0 0 
0 0 0 
0 0 0 
0 0 0 
0 0 0 
0 0 0 
0 0 0 
0 0 0 
0 0 0 
0 0 0 
0 0 0 
0 0 0 
0 0 0 
0 0 0 
0 0 0 
0 0 0 
0 0 0 
0 0 0 
0 0 0 
0 0 0 
0 0 0 
0 0 0 
0 0 0 
0 0 0 
0 0 0 
0 0 0 
0 0 0 
0 0 0 
0 0 0 
0 0 0 
0 0 0 
0 0 0 
0 0 0 
0 0 0 
0 0 0 
0 0 0 
0 0 0 
0 0 0 
0 0 0 
0 0 0 
0 0 0 
0 0 0 
0 0 0 
0 0 0 
0 0 0 
0 0 0 
0 0 0 
0 0 0 
0 0 0 
0 0 0 
0 0 0 
0 0 0 
0 0 0 
0 0 0 
0 0 0 
0 0 0 
0 0 0 
0 0 0 
0 0 0 
0 0 0 
SCALARS num_collisions int 1
LOOKUP_TABLE default
1 
1 
1 
1 
1 
1 
1 
1 
1 
1 
1 
1 
1 
1 
1 
1 
1 
1 
1 
1 
1 
1 
1 
1 
1 
1 
1 
1 
1 
1 
1 
1 
1 
1 
1 
1 
1 
1 
1 
1 
1 
1 
1 
1 
1 
1 
1 
1 
1 
1 
1 
1 
1 
1 
1 
1 
1 
1 
1 
1 
1 
1 
1 
1 
1 
1 
1 
1 
1 
1 
1 
1 
1 
1 
1 
1 
1 
1 
1 
1 
1 
1 
1 
1 
1 
1 
1 
1 
1 
1 
1 
1 
1 
1 
1 
1 
1 
1 
1 
1 
1 
1 
1 
1 
1 
1 
1 
1 
1 
1 
1 
1 
1 
1 
1 
1 
1 
1 
1 
1 
1 
1 
1 
1 
1 
1 
1 
1 
1 
1 
1 
1 
1 
1 
1 
1 
1 
1 
1 
1 
1 
1 
1 
1 
1 
1 
1 
1 
1 
1 
1 
1 
1 
1 
1 
1 
1 
1 
1 
1 
1 
1 
1 
1 
1 
1 
1 
1 
1 
1 
1 
1 
1 
1 
1 
1 
1 
1 
1 
1 
1 
1 
1 
1 
1 
1 
1 
1 
1 
1 
1 
1 
1 
1 
1 
1 
1 
1 
1 
1 
1 
1 
1 
1 
1 
1 
1 
1 
1 
1 
1 
1 
1 
1 
1 
1 
1 
1 
1 
1 
1 
1 
1 
1 
1 
1 
1 
1 
1 
1 
1 
1 
1 
1 
1 
1 
1 
1 
1 
1 
1 
1 
1 
1 
1 
1 
1 
1 
1 
1 
1 
1 
1 
1 
1 
1 
1 
1 
1 
1 
1 
1 
1 
1 
1 
1 
1 
1 
1 
1 
1 
1 
1 
1 
1 
1 
1 
1 
1 
1 
1 
1 
1 
1 
1 
1 
1 
1 
1 
1 
1 
1 
1 
1 
1 
1 
1 
1 
1 
1 
1 
1 
1 
1 
1 
1 
1 
1 
1 
1 
1 
1 
1 
1 
1 
1 
1 
1 
1 
1 
1 
1 
VECTORS pos double
-0.40601 -0.410337 -0.425468 
-0.396812 -0.0222946 -0.42344 
-0.414812 0.0988138 -0.420052 
-0.450002 0.147222 -0.409553 
-0.419585 0.377242 -0.422341 
-0.444354 0.31157 -0.416272 
-0.289576 -0.419916 -0.428575 
-0.260967 -0.423123 -0.411191 
-0.265351 -0.192618 -0.425898 
-0.309364 -0.208532 -0.400158 
-0.192304 0.0406842 -0.439748 
-0.180976 0.117033 -0.466023 
-0.301397 0.361319 -0.429612 
-0.223817 0.335159 -0.444851 
-0.0909751 -0.379455 -0.443745 
-0.00299149 -0.408313 -0.463926 
-0.0059758 -0.0857753 -0.445835 
0.0714044 0.155531 -0.423377 
-0.0254709 0.359973 -0.401653 
0.216272 -0.41375 -0.424011 
0.171507 -0.219243 -0.427791 
0.194848 0.00828314 -0.42406 
0.142212 0.251743 -0.445833 
0.295867 0.389989 -0.364747 
0.317127 0.356261 -0.412268 
0.423672 -0.428731 -0.413371 
0.434615 -0.328157 -0.407933 
0.295774 -0.0342665 -0.442339 
0.352413 0.0775734 -0.411435 
0.415627 0.114673 -0.422573 
-0.365428 -0.399781 -0.393098 
-0.409888 -0.425913 -0.353091 
-0.349489 -0.01746 -0.385203 
-0.431605 -0.0496834 -0.360353 
-0.444748 0.225829 -0.375777 
-0.447389 0.136366 -0.339484 
-0.299899 -0.357749 -0.387665 
-0.113568 -0.12866 -0.197064 
-0.298586 0.127536 -0.435526 
-0.158625 0.417498 -0.373437 
-0.186877 0.417852 -0.40214 
-0.10132 -0.346706 -0.374414 
-0.0454213 -0.370658 -0.358928 
0.309321 -0.278943 -0.12022 
0.338457 -0.22693 -0.0475739 
0.00058265 0.240155 -0.40699 
0.0819391 0.346064 -0.403146 
0.203044 -0.429712 -0.356315 
0.236242 -0.365072 -0.36721 
0.177756 -0.188573 -0.342132 
0.161894 -0.268481 -0.409058 
0.182293 0.0375899 -0.357126 
0.235153 0.102502 -0.441461 
0.223628 0.166241 -0.452786 
0.149371 0.126335 -0.428879 
0.268657 0.412776 -0.290396 
0.423649 -0.44917 -0.334185 
0.444182 -0.333415 -0.321016 
0.449907 0.0968712 -0.367269 
0.416731 0.152545 -0.360598 
0.407128 0.301434 -0.463877 
0.439581 0.356134 -0.411337 
-0.414197 -0.450146 -0.276946 
-0.338979 -0.0210103 -0.293878 
-0.277084 -0.0222301 -0.356621 
-0.307178 0.249816 -0.40513 
-0.430886 0.26754 -0.333819 
-0.176394 -0.405948 -0.408892 
0.235168 -0.320465 -0.250247 
-0.346277 0.343315 -0.367154 
-0.311516 0.338858 -0.287372 
0.0575323 -0.39165 -0.418036 
0.181911 -0.247231 -0.0381871 
-0.0114495 0.255018 -0.363593 
0.300494 0.324999 -0.448659 
0.226202 0.363833 -0.434557 
0.242621 -0.4335 -0.267423 
0.0965513 -0.0891089 -0.434121 
0.14039 0.0438174 -0.292698 
0.292714 0.060844 -0.412017 
0.0829737 0.128057 -0.35813 
0.414358 -0.211737 -0.4153 
0.357467 -0.196845 -0.409171 
0.366174 -0.0924221 -0.404927 
0.415981 -0.106116 -0.413419 
0.449448 0.226512 -0.315151 
0.445329 0.239352 -0.414049 
-0.399078 -0.44294 -0.201103 
-0.257776 0.143459 -0.362669 
-0.335068 0.190209 -0.340154 
-0.213517 -0.425904 -0.389467 
-0.166525 -0.394604 -0.365246 
-0.0328156 0.0719238 -0.445153 
-0.0819321 0.150475 -0.418906 
-0.422015 0.377553 -0.396256 
-0.328215 0.409098 -0.381721 
0.0802745 -0.41602 -0.378224 
0.428389 -0.303494 -0.0542817 
0.449342 -0.351788 0.0260575 
0.0277978 0.047869 -0.408583 
0.041373 0.423028 -0.44515 
0.311178 -0.432718 -0.272101 
0.284179 -0.401039 -0.226569 
0.299288 0.183363 -0.429228 
0.22971 0.19839 -0.402856 
0.181167 0.417644 -0.421874 
0.375117 -0.269526 -0.31136 
0.444024 -0.0713282 -0.340494 
0.356438 0.187907 -0.36242 
0.408714 0.330632 -0.344979 
0.451175 0.378495 -0.339454 
-0.439006 -0.45157 -0.144287 
-0.383343 -0.399269 -0.146428 
-0.339769 -0.386356 -0.0789525 
-0.341611 -0.0201721 -0.2252 
-0.0348317 -0.145277 -0.193947 
-0.0833286 -0.198952 -0.242987 
0.0133238 0.0142592 -0.374035 
0.0404078 0.0753269 -0.333651 
0.245125 -0.323622 -0.312507 
0.0367754 0.0953167 -0.287014 
0.02151 0.0988467 -0.213122 
0.229369 0.270935 -0.34331 
0.226138 0.196071 -0.350568 
0.29907 0.449961 -0.260753 
0.421392 -0.21568 -0.340409 
-0.442468 -0.447572 -0.0578416 
-0.347517 0.443391 -0.30582 
-0.271737 0.43795 -0.368839 
-0.275272 0.437191 -0.31119 
-0.111108 -0.392473 -0.301408 
-0.190618 -0.375456 -0.279413 
-0.124041 -0.275994 -0.2789 
-0.164259 0.115234 -0.342995 
-0.194393 0.355456 -0.364689 
-0.227758 0.299493 -0.363088 
-0.118883 -0.326411 -0.32125 
0.444732 0.0651434 -0.19512 
0.413073 0.0339385 -0.111924 
0.291074 -0.156271 -0.365112 
0.185008 -0.115198 -0.393426 
0.249928 -0.111531 -0.365818 
0.206917 0.351447 -0.356935 
0.176627 0.417648 -0.370567 
0.364501 -0.200788 -0.334281 
0.443926 0.00893712 -0.321809 
0.447459 0.0678492 -0.291084 
-0.437431 -0.427646 0.0635552 
-0.142892 -0.310992 -0.219488 
-0.174855 -0.358586 -0.256868 
-0.361767 0.350873 -0.132799 
-0.104185 0.230411 -0.330129 
-0.0880213 0.262364 -0.260949 
-0.0207302 -0.355033 -0.278494 
0.115896 -0.196495 -0.0885906 
0.294035 -0.0805868 -0.256059 
0.285915 -0.10602 -0.202351 
0.187143 0.21198 -0.29215 
0.419496 -0.22815 -0.258212 
0.342935 -0.0657724 -0.311855 
0.3434 0.0521748 -0.328532 
0.357308 0.270757 -0.306398 
0.446045 0.389045 -0.152964 
-0.299102 -0.421175 -0.0666041 
-0.339393 -0.433551 0.0176225 
-0.436137 0.304416 -0.26688 
-0.387796 0.232406 -0.261732 
-0.435551 0.247317 -0.238665 
-0.146338 -0.252157 -0.161899 
-0.199048 -0.304673 -0.144223 
-0.118149 0.413531 -0.016265 
-0.123039 0.386514 -0.086436 
-0.0979304 0.166701 -0.26835 
-0.0967274 0.443219 -0.314608 
0.0446534 -0.157078 -0.14554 
-0.0359275 0.302087 -0.211175 
-0.0322455 0.235755 -0.188057 
-0.0406268 0.386592 -0.349092 
0.00546096 0.443844 -0.31515 
0.434627 -0.348738 -0.246021 
0.405071 -0.146976 -0.262777 
-0.233819 -0.416117 -0.113584 
-0.330363 0.217848 -0.195834 
-0.246514 0.191093 -0.169146 
-0.400982 0.45 -0.223375 
-0.172464 -0.391713 -0.225986 
-0.222594 -0.391052 -0.176348 
-0.00424249 -0.270229 -0.051481 
-0.165667 0.353389 -0.266931 
-0.0646675 -0.375014 -0.233899 
7.27858e-05 0.195583 -0.107805 
-0.00582137 0.163257 -0.177729 