# vtk DataFile Version 2.0
Generated by NetDEM
ASCII 
DATASET POLYDATA
POINTS 458 double
-0.416965 -0.405494 -0.462917 
-0.403443 -0.399855 -0.388442 
-0.403333 -0.203333 -0.457929 
-0.403333 -0.203333 -0.365723 
-0.410905 -0.00738256 -0.463943 
-0.411083 -0.00907628 -0.390439 
-0.402763 0.397237 -0.45794 
-0.402763 0.397237 -0.365743 
-0.203538 -0.203538 -0.45793 
-0.203538 -0.203538 -0.365725 
-0.203218 -0.00321788 -0.457927 
-0.203218 -0.00321788 -0.36572 
-0.174771 0.207437 -0.457945 
-0.192945 0.206486 -0.377017 
-0.246801 0.369061 -0.465052 
-0.15639 0.413907 -0.444785 
-0.0362402 -0.396434 -0.453846 
-0.0465258 -0.386156 -0.379905 
-0.00366947 -0.203669 -0.457928 
-0.00366947 -0.203669 -0.36572 
-0.00360232 -0.00360232 -0.457929 
-0.00360232 -0.00360232 -0.365723 
0.033193 0.187662 -0.45318 
-0.00815093 0.161196 -0.33815 
-0.0371828 0.393323 -0.465205 
0.0505198 0.344609 -0.439892 
-0.0371828 0.393323 -0.465205 
-0.0404962 0.435606 -0.35757 
0.188966 -0.398401 -0.464477 
0.187475 -0.397175 -0.392037 
0.174287 -0.211876 -0.464622 
0.187737 -0.199131 -0.387735 
0.17338 -0.00922757 -0.462123 
0.186798 -0.0123833 -0.383791 
0.17338 -0.00922757 -0.462123 
0.19999 0.112249 -0.454933 
0.1591 0.210565 -0.465067 
0.22233 0.185906 -0.383853 
0.396713 -0.403287 -0.457926 
0.396713 -0.403287 -0.365718 
0.39661 -0.20339 -0.457927 
0.39661 -0.20339 -0.36572 
0.396488 -0.00351175 -0.45793 
0.396488 -0.00351175 -0.365724 
-0.403443 -0.399855 -0.388442 
-0.402538 -0.403545 -0.316032 
-0.403333 -0.203333 -0.365723 
-0.403333 -0.203333 -0.273629 
-0.411083 -0.00907628 -0.390439 
-0.391559 -0.00235657 -0.31128 
-0.402763 0.397237 -0.365743 
-0.402763 0.397237 -0.27366 
-0.302827 -0.406046 -0.385051 
-0.402538 -0.403545 -0.316032 
-0.302827 -0.406046 -0.385051 
-0.239325 -0.397815 -0.317901 
-0.203538 -0.203538 -0.365725 
-0.203538 -0.203538 -0.273632 
-0.203218 -0.00321788 -0.36572 
-0.203218 -0.00321788 -0.273625 
-0.15639 0.413907 -0.444785 
-0.204592 0.449767 -0.382172 
-0.0465258 -0.386156 -0.379905 
0.0167148 -0.42453 -0.322349 
-0.0465258 -0.386156 -0.379905 
-0.1437 -0.410214 -0.362848 
-0.00366947 -0.203669 -0.36572 
-0.00366947 -0.203669 -0.273626 
-0.00360232 -0.00360232 -0.365723 
-0.00360232 -0.00360232 -0.27363 
0.00285167 0.254225 -0.441896 
0.0505198 0.344609 -0.439892 
0.00285167 0.254225 -0.441896 
-0.0340756 0.245788 -0.350303 
0.0505198 0.344609 -0.439892 
0.127334 0.346007 -0.409549 
0.187475 -0.397175 -0.392037 
0.176174 -0.395687 -0.317657 
0.187737 -0.199131 -0.387735 
0.163557 -0.173466 -0.307226 
0.186798 -0.0123833 -0.383791 
0.188765 0.00401135 -0.309361 
0.396713 -0.403287 -0.365718 
0.396713 -0.403287 -0.273623 
0.39661 -0.20339 -0.36572 
0.39661 -0.20339 -0.273624 
0.396488 -0.00351175 -0.365724 
0.396488 -0.00351175 -0.273631 
-0.402538 -0.403545 -0.316032 
-0.41257 -0.406043 -0.241398 
-0.403333 -0.203333 -0.273629 
-0.403333 -0.203333 -0.181693 
-0.391559 -0.00235657 -0.31128 
-0.389763 0.00150544 -0.234727 
-0.402763 0.397237 -0.27366 
-0.402763 0.397237 -0.181733 
-0.203538 -0.203538 -0.273632 
-0.203538 -0.203538 -0.181696 
-0.203218 -0.00321788 -0.273625 
-0.203218 -0.00321788 -0.181687 
-0.192945 0.206486 -0.377017 
-0.203798 0.175665 -0.276325 
-0.204592 0.449767 -0.382172 
-0.225842 0.43366 -0.29712 
-0.00366947 -0.203669 -0.273626 
-0.00366947 -0.203669 -0.181689 
-0.00360232 -0.00360232 -0.27363 
-0.00360232 -0.00360232 -0.181694 
0.176174 -0.395687 -0.317657 
0.202299 -0.397148 -0.229527 
0.163557 -0.173466 -0.307226 
0.185738 -0.20834 -0.226778 
0.188765 0.00401135 -0.309361 
0.192738 0.00441548 -0.235855 
0.396713 -0.403287 -0.273623 
0.396713 -0.403287 -0.181684 
0.39661 -0.20339 -0.273624 
0.39661 -0.20339 -0.181686 
0.396488 -0.00351175 -0.273631 
0.396488 -0.00351175 -0.181695 
-0.41257 -0.406043 -0.241398 
-0.410311 -0.408883 -0.155388 
-0.403333 -0.203333 -0.181693 
-0.403333 -0.203333 -0.0899393 
-0.389763 0.00150544 -0.234727 
-0.392047 -0.00521297 -0.152958 
-0.402763 0.397237 -0.181733 
-0.402763 0.397237 -0.0899891 
-0.1437 -0.410214 -0.362848 
-0.239325 -0.397815 -0.317901 
-0.203538 -0.203538 -0.181696 
-0.203538 -0.203538 -0.0899437 
-0.203218 -0.00321788 -0.181687 
-0.203218 -0.00321788 -0.0899322 
-0.225842 0.43366 -0.29712 
-0.24888 0.376301 -0.24165 
-0.00366947 -0.203669 -0.181689 
-0.00366947 -0.203669 -0.0899349 
-0.00360232 -0.00360232 -0.181694 
-0.00360232 -0.00360232 -0.0899415 
-0.00815093 0.161196 -0.33815 
-0.0218181 0.217237 -0.260098 
0.202299 -0.397148 -0.229527 
0.199207 -0.401379 -0.158025 
0.185738 -0.20834 -0.226778 
0.20641 -0.259777 -0.150744 
0.192738 0.00441548 -0.235855 
0.187292 0.0017385 -0.163066 
0.22233 0.185906 -0.383853 
0.193625 0.211944 -0.303145 
0.396713 -0.403287 -0.181684 
0.396713 -0.403287 -0.0899286 
0.39661 -0.20339 -0.181686 
0.39661 -0.20339 -0.0899317 
0.396488 -0.00351175 -0.181695 
0.396488 -0.00351175 -0.0899427 
-0.410311 -0.408883 -0.155388 
-0.411808 -0.405097 -0.0793136 
-0.403333 -0.203333 -0.0899393 
-0.403333 -0.203333 0.00162866 
-0.392047 -0.00521297 -0.152958 
-0.419825 -0.00446137 -0.0838792 
-0.451015 0.19061 -0.105706 
-0.38801 0.19676 -0.0286129 
-0.402763 0.397237 -0.0899891 
-0.402763 0.397237 0.00157116 
-0.203538 -0.203538 -0.0899437 
-0.203538 -0.203538 0.00162322 
-0.203218 -0.00321788 -0.0899322 
-0.203218 -0.00321788 0.00163648 
-0.203798 0.175665 -0.276325 
-0.231274 0.200082 -0.188748 
-0.00366947 -0.203669 -0.0899349 
-0.00366947 -0.203669 0.00163306 
-0.00360232 -0.00360232 -0.0899415 
-0.00360232 -0.00360232 0.00162566 
-0.0218181 0.217237 -0.260098 
-0.00471383 0.201584 -0.183043 
0.199207 -0.401379 -0.158025 
0.208337 -0.399254 -0.078836 
0.20641 -0.259777 -0.150744 
0.196066 -0.22509 -0.0621076 
0.187292 0.0017385 -0.163066 
0.183692 -0.00175193 -0.0867957 
0.193625 0.211944 -0.303145 
0.199629 0.258376 -0.221856 
0.230838 0.408109 -0.10851 
0.192938 0.391463 -0.0180044 
0.396713 -0.403287 -0.0899286 
0.396713 -0.403287 0.00164081 
0.39661 -0.20339 -0.0899317 
0.39661 -0.20339 0.00163708 
0.396488 -0.00351175 -0.0899427 
0.396488 -0.00351175 0.00162441 
0.392532 0.188594 -0.117209 
0.400408 0.173058 -0.0187728 
0.391781 0.443636 -0.301584 
0.393887 0.400147 -0.222299 
-0.411808 -0.405097 -0.0793136 
-0.410438 -0.40197 -0.00028634 
-0.403333 -0.203333 0.00162866 
-0.403333 -0.203333 0.0930358 
-0.419825 -0.00446137 -0.0838792 
-0.414948 -0.00200666 0.0115885 
-0.402763 0.397237 0.00157116 
-0.402763 0.397237 0.0929738 
-0.203538 -0.203538 0.00162322 
-0.203538 -0.203538 0.0930298 
-0.203218 -0.00321788 0.00163648 
-0.203218 -0.00321788 0.0930438 
-0.231274 0.200082 -0.188748 
-0.213974 0.213807 -0.101028 
-0.00366947 -0.203669 0.00163306 
-0.00366947 -0.203669 0.09304 
-0.00360232 -0.00360232 0.00162566 
-0.00360232 -0.00360232 0.0930323 
-0.00471383 0.201584 -0.183043 
0.0108912 0.185838 -0.104868 
0.208337 -0.399254 -0.078836 
0.188385 -0.409247 -0.00846953 
0.196066 -0.22509 -0.0621076 
0.197001 -0.198227 0.0166113 
0.183692 -0.00175193 -0.0867957 
0.1871 -0.00414793 -0.00710919 
0.192938 0.391463 -0.0180044 
0.188335 0.394936 0.0795882 
0.396713 -0.403287 0.00164081 
0.396713 -0.403287 0.0930488 
0.39661 -0.20339 0.00163708 
0.39661 -0.20339 0.0930447 
0.396488 -0.00351175 0.00162441 
0.396488 -0.00351175 0.0930311 
0.400408 0.173058 -0.0187728 
0.396555 0.205294 0.0748438 
0.393887 0.400147 -0.222299 
0.399892 0.373418 -0.138314 
-0.410438 -0.40197 -0.00028634 
-0.411102 -0.403468 0.0774919 
-0.403333 -0.203333 0.0930358 
-0.403333 -0.203333 0.184336 
-0.414948 -0.00200666 0.0115885 
-0.413891 -0.000592681 0.0834294 
-0.402763 0.397237 0.0929738 
-0.402763 0.397237 0.184274 
-0.203538 -0.203538 0.0930298 
-0.203538 -0.203538 0.18433 
-0.203218 -0.00321788 0.0930438 
-0.203218 -0.00321788 0.184343 
-0.0179013 -0.402779 -0.0281014 
-0.00406955 -0.408517 0.0626811 
-0.00366947 -0.203669 0.09304 
-0.00366947 -0.203669 0.18434 
-0.00360232 -0.00360232 0.0930323 
-0.00360232 -0.00360232 0.184332 
0.0108912 0.185838 -0.104868 
-0.00875685 0.202987 -0.0220659 
0.188385 -0.409247 -0.00846953 
0.200152 -0.403593 0.0847973 
0.1871 -0.00414793 -0.00710919 
0.18985 -0.00646148 0.0684526 
0.188335 0.394936 0.0795882 
0.201473 0.399636 0.174616 
0.396713 -0.403287 0.0930488 
0.396713 -0.403287 0.184349 
0.39661 -0.20339 0.0930447 
0.39661 -0.20339 0.184345 
0.396488 -0.00351175 0.0930311 
0.396488 -0.00351175 0.184331 
0.396555 0.205294 0.0748438 
0.395406 0.199993 0.171976 
0.399892 0.373418 -0.138314 
0.389709 0.409788 -0.0581877 
-0.411102 -0.403468 0.0774919 
-0.409141 -0.404517 0.160309 
-0.403333 -0.203333 0.184336 
-0.403333 -0.203333 0.275604 
-0.413891 -0.000592681 0.0834294 
-0.402049 -0.0031236 0.160939 
-0.419849 0.195883 0.162215 
-0.406398 0.195348 0.26038 
-0.402763 0.397237 0.184274 
-0.402763 0.397237 0.275548 
-0.203538 -0.203538 0.18433 
-0.203538 -0.203538 0.275599 
-0.203218 -0.00321788 0.184343 
-0.203218 -0.00321788 0.27561 
-0.00366947 -0.203669 0.18434 
-0.00366947 -0.203669 0.275608 
-0.00360232 -0.00360232 0.184332 
-0.00360232 -0.00360232 0.275601 
-0.00875685 0.202987 -0.0220659 
-0.00358113 0.200418 0.0791689 
0.200152 -0.403593 0.0847973 
0.194743 -0.403628 0.156745 
0.18985 -0.00646148 0.0684526 
0.194937 -0.00591974 0.148975 
0.201473 0.399636 0.174616 
0.196804 0.396247 0.269161 
0.396713 -0.403287 0.184349 
0.396713 -0.403287 0.275616 
0.39661 -0.20339 0.184345 
0.39661 -0.20339 0.275612 
0.396488 -0.00351175 0.184331 
0.396488 -0.00351175 0.2756 
0.395406 0.199993 0.171976 
0.396869 0.193579 0.267465 
0.389709 0.409788 -0.0581877 
0.399281 0.394563 0.0450981 
-0.409141 -0.404517 0.160309 
-0.406253 -0.405111 0.235635 
-0.403333 -0.203333 0.275604 
-0.403333 -0.203333 0.366914 
-0.402049 -0.0031236 0.160939 
-0.406213 -0.00380285 0.236496 
-0.406398 0.195348 0.26038 
-0.3964 0.19781 0.357631 
-0.402763 0.397237 0.275548 
-0.402763 0.397237 0.366871 
-0.203538 -0.203538 0.275599 
-0.203538 -0.203538 0.36691 
-0.203218 -0.00321788 0.27561 
-0.203218 -0.00321788 0.366917 
-0.00366947 -0.203669 0.275608 
-0.00366947 -0.203669 0.366916 
-0.00360232 -0.00360232 0.275601 
-0.00360232 -0.00360232 0.366911 
-0.00358113 0.200418 0.0791689 
0.00105249 0.196605 0.190192 
0.194743 -0.403628 0.156745 
0.197578 -0.400305 0.232844 
0.194937 -0.00591974 0.148975 
0.193514 -0.00428249 0.222665 
0.196804 0.396247 0.269161 
0.19618 0.396577 0.363081 
0.396713 -0.403287 0.275616 
0.396713 -0.403287 0.366922 
0.39661 -0.20339 0.275612 
0.39661 -0.20339 0.366919 
0.396488 -0.00351175 0.2756 
0.396488 -0.00351175 0.366911 
0.396869 0.193579 0.267465 
0.396619 0.196784 0.362066 
0.399281 0.394563 0.0450981 
0.396748 0.396645 0.151693 
-0.403333 -0.203333 0.458303 
-0.403333 -0.203333 0.366914 
-0.402929 0.197464 0.454107 
-0.3964 0.19781 0.357631 
-0.402763 0.397237 0.45828 
-0.402763 0.397237 0.366871 
-0.203538 -0.203538 0.458301 
-0.203538 -0.203538 0.36691 
-0.203218 -0.00321788 0.458304 
-0.203218 -0.00321788 0.366917 
-0.00443948 -0.40431 0.256722 
-0.00293073 -0.402965 0.357932 
-0.00366947 -0.203669 0.458304 
-0.00366947 -0.203669 0.366916 
-0.00360232 -0.00360232 0.458301 
-0.00360232 -0.00360232 0.366911 
0.197175 0.397125 0.45661 
0.19618 0.396577 0.363081 
0.396713 -0.403287 0.458307 
0.396713 -0.403287 0.366922 
0.39661 -0.20339 0.458306 
0.39661 -0.20339 0.366919 
0.396488 -0.00351175 0.458301 
0.396488 -0.00351175 0.366911 
0.396432 0.196901 0.456154 
0.396619 0.196784 0.362066 
-0.451015 0.19061 -0.105706 
-0.5 0.190644 -0.105695 
-0.204592 0.449767 -0.382172 
-0.18555 0.500005 -0.38848 
0.39661 -0.20339 -0.457927 
0.39661 -0.20339 -0.5 
0.17338 -0.00922757 -0.462123 
0.205677 -0.00247942 -0.50003 
-0.410905 -0.00738256 -0.463943 
-0.395043 -0.00932054 -0.500034 
0.396488 -0.00351175 -0.45793 
0.396488 -0.00351175 -0.5 
-0.1837 -0.37213 -0.452204 
-0.188473 -0.390357 -0.500003 
-0.203538 -0.203538 -0.45793 
-0.203538 -0.203538 -0.5 
0.394198 0.357952 -0.446718 
0.359376 0.332866 -0.500002 
-0.416965 -0.405494 -0.462917 
-0.404413 -0.401139 -0.500059 
0.00285167 0.254225 -0.441896 
-0.0284043 0.214739 -0.500027 
0.188966 -0.398401 -0.464477 
0.194264 -0.395587 -0.500037 
-0.403333 -0.203333 -0.457929 
-0.403333 -0.203333 -0.5 
0.174287 -0.211876 -0.464622 
0.1858 -0.190339 -0.500008 
-0.246801 0.369061 -0.465052 
-0.237014 0.368501 -0.500005 
-0.265457 -0.432429 -0.459477 
-0.260749 -0.419194 -0.500003 
-0.00366947 -0.203669 -0.457928 
-0.00366947 -0.203669 -0.5 
-0.302288 0.160732 -0.46489 
-0.310634 0.160221 -0.500003 
-0.00360232 -0.00360232 -0.457929 
-0.00360232 -0.00360232 -0.5 
-0.203218 -0.00321788 -0.457927 
-0.203218 -0.00321788 -0.5 
0.396713 -0.403287 -0.457926 
0.396713 -0.403287 -0.5 
-0.174771 0.207437 -0.457945 
-0.195148 0.213998 -0.500008 
-0.0362402 -0.396434 -0.453846 
-0.00482501 -0.387913 -0.500009 
0.369782 0.439918 -0.465044 
0.379553 0.422969 -0.500001 
-0.15639 0.413907 -0.444785 
-0.136974 0.406518 -0.500007 
0.033193 0.187662 -0.45318 
0.0261287 0.186982 -0.500017 
0.1591 0.210565 -0.465067 
0.163009 0.21865 -0.500015 
0.19999 0.112249 -0.454933 
0.220045 0.135426 -0.500003 
-0.402763 0.397237 -0.45794 
-0.402763 0.397237 -0.5 
-0.0371828 0.393323 -0.465205 
-0.0552527 0.380467 -0.500094 
0.28652 0.0693748 -0.441573 
0.296003 0.0527186 -0.500003 
0.232623 0.407513 -0.450004 
0.232202 0.407388 -0.5 
0.396488 -0.00351175 0.458301 
0.396488 -0.00351175 0.5 
-0.203538 -0.203538 0.458301 
-0.203538 -0.203538 0.5 
0.39661 -0.20339 0.458306 
0.39661 -0.20339 0.5 
-0.403333 -0.203333 0.458303 
-0.403333 -0.203333 0.5 
0.396432 0.196901 0.456154 
0.396434 0.196886 0.5 
-0.402763 0.397237 0.45828 
-0.402763 0.397237 0.5 
0.396713 -0.403287 0.458307 
0.396713 -0.403287 0.5 
-0.203218 -0.00321788 0.458304 
-0.203218 -0.00321788 0.5 
0.197175 0.397125 0.45661 
0.197168 0.397118 0.5 
-0.00360232 -0.00360232 0.458301 
-0.00360232 -0.00360232 0.5 
-0.00366947 -0.203669 0.458304 
-0.00366947 -0.203669 0.5 
-0.402929 0.197464 0.454107 
-0.40294 0.197454 0.5 
LINES 229 687
2 0 1
2 2 3
2 4 5
2 6 7
2 8 9
2 10 11
2 12 13
2 14 15
2 16 17
2 18 19
2 20 21
2 22 23
2 24 25
2 26 27
2 28 29
2 30 31
2 32 33
2 34 35
2 36 37
2 38 39
2 40 41
2 42 43
2 44 45
2 46 47
2 48 49
2 50 51
2 52 53
2 54 55
2 56 57
2 58 59
2 60 61
2 62 63
2 64 65
2 66 67
2 68 69
2 70 71
2 72 73
2 74 75
2 76 77
2 78 79
2 80 81
2 82 83
2 84 85
2 86 87
2 88 89
2 90 91
2 92 93
2 94 95
2 96 97
2 98 99
2 100 101
2 102 103
2 104 105
2 106 107
2 108 109
2 110 111
2 112 113
2 114 115
2 116 117
2 118 119
2 120 121
2 122 123
2 124 125
2 126 127
2 128 129
2 130 131
2 132 133
2 134 135
2 136 137
2 138 139
2 140 141
2 142 143
2 144 145
2 146 147
2 148 149
2 150 151
2 152 153
2 154 155
2 156 157
2 158 159
2 160 161
2 162 163
2 164 165
2 166 167
2 168 169
2 170 171
2 172 173
2 174 175
2 176 177
2 178 179
2 180 181
2 182 183
2 184 185
2 186 187
2 188 189
2 190 191
2 192 193
2 194 195
2 196 197
2 198 199
2 200 201
2 202 203
2 204 205
2 206 207
2 208 209
2 210 211
2 212 213
2 214 215
2 216 217
2 218 219
2 220 221
2 222 223
2 224 225
2 226 227
2 228 229
2 230 231
2 232 233
2 234 235
2 236 237
2 238 239
2 240 241
2 242 243
2 244 245
2 246 247
2 248 249
2 250 251
2 252 253
2 254 255
2 256 257
2 258 259
2 260 261
2 262 263
2 264 265
2 266 267
2 268 269
2 270 271
2 272 273
2 274 275
2 276 277
2 278 279
2 280 281
2 282 283
2 284 285
2 286 287
2 288 289
2 290 291
2 292 293
2 294 295
2 296 297
2 298 299
2 300 301
2 302 303
2 304 305
2 306 307
2 308 309
2 310 311
2 312 313
2 314 315
2 316 317
2 318 319
2 320 321
2 322 323
2 324 325
2 326 327
2 328 329
2 330 331
2 332 333
2 334 335
2 336 337
2 338 339
2 340 341
2 342 343
2 344 345
2 346 347
2 348 349
2 350 351
2 352 353
2 354 355
2 356 357
2 358 359
2 360 361
2 362 363
2 364 365
2 366 367
2 368 369
2 370 371
2 372 373
2 374 375
2 376 377
2 378 379
2 380 381
2 382 383
2 384 385
2 386 387
2 388 389
2 390 391
2 392 393
2 394 395
2 396 397
2 398 399
2 400 401
2 402 403
2 404 405
2 406 407
2 408 409
2 410 411
2 412 413
2 414 415
2 416 417
2 418 419
2 420 421
2 422 423
2 424 425
2 426 427
2 428 429
2 430 431
2 432 433
2 434 435
2 436 437
2 438 439
2 440 441
2 442 443
2 444 445
2 446 447
2 448 449
2 450 451
2 452 453
2 454 455
2 456 457
POINT_DATA 458
SCALARS id int 1
LOOKUP_TABLE default
0
25
1
26
2
27
4
29
6
31
7
32
8
58
9
34
10
35
11
36
12
37
13
88
14
39
14
114
15
40
16
41
17
42
17
43
18
93
20
45
21
46
22
47
25
50
26
51
27
52
29
54
30
50
30
105
31
56
32
57
34
59
35
60
35
80
36
61
37
62
38
39
38
63
39
64
40
65
41
66
42
67
45
70
46
71
47
72
50
75
51
76
52
77
54
79
56
81
57
82
58
108
59
84
61
86
62
87
65
90
66
91
67
92
70
95
71
96
72
97
75
100
76
101
77
102
79
104
80
105
81
106
82
107
84
109
86
111
87
112
88
113
90
115
91
116
92
117
93
118
95
120
96
121
97
122
100
125
101
126
102
127
103
128
104
129
106
131
107
132
108
133
111
136
112
137
113
138
115
140
116
141
117
142
118
143
119
144
120
145
121
146
122
147
123
148
124
149
125
150
126
151
127
152
129
154
131
156
132
157
133
158
136
161
137
162
138
163
140
165
141
166
142
167
144
169
145
170
146
171
147
172
148
173
149
174
150
175
151
176
152
177
154
179
156
181
157
182
160
185
161
186
162
187
163
188
165
190
167
192
169
194
170
195
171
196
172
197
173
198
174
199
175
200
176
201
177
202
178
203
179
204
181
206
182
207
186
211
187
212
188
213
190
215
192
217
194
219
195
220
196
221
197
222
198
223
199
224
200
225
201
251
202
227
203
253
204
254
206
256
207
257
211
261
212
262
213
238
215
240
217
242
219
269
220
270
221
271
222
272
223
273
224
249
226
251
228
253
229
254
231
256
232
257
235
260
236
261
237
262
244
269
245
270
246
271
247
272
248
273
103
0
59
3
21
4
17
4
2
4
22
4
55
4
6
4
49
4
0
4
38
4
15
4
1
4
16
4
9
4
5
4
11
4
33
4
12
4
7
4
20
4
8
4
10
4
24
4
34
4
13
4
18
4
43
4
4
4
14
4
68
4
19
4
247
5
231
5
246
5
226
5
248
5
229
5
245
5
232
5
244
5
237
5
236
5
228
5
CELL_DATA 229
VECTORS force double
-21.9217 2.74615 -200.511 
0 0 -14998.1 
-6.69564 -0.474779 -139.34 
0 0 -15013 
0 0 -14998 
0 0 -14995.9 
-4.09736 4.63229 -23.9632 
-12.561 -16.876 -20.7581 
13.1713 2.67041 -23.9919 
0 0 -14994.5 
0 0 -14996.9 
31.0434 10.223 -115.208 
-53.1788 36.4004 -7.84464 
-36.7661 -178.255 -339.234 
-2.44469 -0.628857 -127.793 
1.1853 1.92548 -16.4919 
2.53177 -0.975494 -123.693 
-2.21709 -5.83058 0.827486 
-15.1241 7.78255 -37.5687 
0 0 -14995.2 
0 0 -14995.4 
0 0 -14997.9 
-8.76908 -8.38087 -179.018 
0 0 -15239.7 
-5.93001 0.94464 -127.276 
0 0 -15256.4 
17.232 1.85244 19.0284 
-27.0775 -3.51232 -2.72937 
0 0 -15240.2 
0 0 -15237.9 
5.18507 -18.0456 -33.7841 
-0.673306 -0.599207 -2.72957 
13.3961 -2.69773 -7.92263 
0 0 -15236.9 
0 0 -15239.2 
20.7943 -1.99768 -15.921 
-13.4052 -19.0911 -25.3228 
20.9833 17.6765 -0.137261 
-1.41964 -0.42931 -109.223 
0.290669 1.77162 -5.69428 
5.57887 -2.58709 -107.249 
0 0 -15236.6 
0 0 -15237.1 
0 0 -15240 
10.2792 4.65761 -150.141 
0 0 -15591.3 
5.96005 1.05847 -111.685 
0 0 -15609.7 
0 0 -15592.5 
0 0 -15590 
1.24689 0.574567 -24.6421 
0.568632 -1.42069 -12.0441 
0 0 -15589.7 
0 0 -15591.7 
-1.52107 2.8119 -83.5569 
-3.36908 10.4961 -9.30335 
8.24518 -2.49266 -86.6814 
0 0 -15588.1 
0 0 -15589 
0 0 -15592.2 
7.19901 -2.23425 -128.057 
0 0 -16030 
14.5381 -0.167493 -95.403 
0 0 -16048.5 
15.2448 0.67604 0.242514 
0 0 -16031.7 
0 0 -16028.9 
0.524231 -0.933005 -1.18259 
0 0 -16029.4 
0 0 -16031.2 
-21.5371 -17.4214 -134.189 
-0.0265926 0.908356 -57.6949 
-3.9992 -2.94152 -36.2981 
5.68063 3.00278 -69.7751 
-3.93415 -1.74199 -18.9764 
0 0 -16026.8 
0 0 -16027.9 
0 0 -16031.4 
7.56167 -13.7716 -102.17 
0 0 -16523.7 
11.2757 -1.41972 -74.2364 
-2193.59 -114.881 -560.697 
0 0 -16540.1 
0 0 -16525.8 
0 0 -16522.8 
8.68089 -3.18802 -27.9628 
0 0 -16524.1 
0 0 -16525.5 
-37.8311 -34.9823 -136.334 
1.13685 0.702443 -38.758 
-0.645489 -8.41657 -55.3781 
0.980992 2.95711 -47.8414 
2.8269 -2.03955 -4.25247 
-198.207 -100.406 639.353 
0 0 -16520.9 
0 0 -16522.1 
0 0 -16525.4 
23.1231 -10.9838 463.493 
3.15757 4.58813 -30.5298 
6.12124 3.39039 -76.2682 
0 0 -17031.6 
7.25604 -7.32171 -53.7956 
0 0 -17042.9 
0 0 -17033.4 
0 0 -17030.9 
3.4359 -3.47686 -12.352 
0 0 -17032.7 
0 0 -17033.5 
8.94597 -2.79687 -91.7847 
0.923087 1.21895 -24.9766 
3.32213 -4.48741 -30.7542 
4.26958 1.61205 -31.9836 
-295.311 -168.2 -2030.82 
0 0 -17029.6 
0 0 -17030.7 
0 0 -17033.1 
16.4763 43.5056 16.6238 
-1.47966 1.82522 -54.3906 
6.43278 3.80127 -51.6569 
0 0 -17503.7 
0.0748987 -4.36478 -36.0325 
0 0 -17506.9 
0 0 -17504.9 
0 0 -17503.8 
-0.155831 -0.16968 -11.0329 
0 0 -17505.3 
0 0 -17505.2 
5.25302 3.68518 -48.056 
1.42633 0.236941 -18.7509 
2.76588 2.26609 -26.4434 
-336.689 -117.118 -5830.56 
0 0 -17503.2 
0 0 -17503.8 
0 0 -17504.7 
-1.00801 231.836 -3250.13 
-2.59504 7.7402 -83.9433 
5.77362 3.17817 -23.8651 
0 0 -17882.4 
2.25647 3.23692 -20.6577 
-159.926 -28.5492 -234.55 
0 0 -17875 
0 0 -17882.3 
0 0 -17883.9 
0 0 -17884.3 
0 0 -17883 
-5.61119 2.42127 -23.671 
1.10644 -0.736092 -7.42556 
8.81015 -3.97364 -37.0539 
39.3177 123.726 -9240.21 
0 0 -17884.1 
0 0 -17883.9 
0 0 -17882.4 
-49.8464 259.848 -6829.54 
6.04237 -12.4267 -64.8961 
1.35554 1.92101 -6.93621 
0 0 -18122.1 
1.58777 1.1651 -7.38604 
-81.3342 -28.4404 -2487.44 
0 0 -18099.7 
0 0 -18120.6 
0 0 -18124.9 
0 0 -18124.2 
0 0 -18121.5 
-2.30615 1.19778 -7.98805 
-0.24178 -0.0135391 -6.84315 
9.54281 -7.17651 -78.5777 
183.453 55.1208 -11443.7 
0 0 -18126.3 
0 0 -18125.2 
0 0 -18120.9 
-7.67493 -102.101 -9604.93 
-5.1284 1.51582 -22.9428 
0 0 18208.8 
-108.914 10.2518 4816.45 
0 0 18172 
0 0 18205.7 
0 0 18212.1 
-1.68597 -0.760791 101.035 
0 0 18211.1 
0 0 18207.1 
95.0126 71.9042 12558.6 
0 0 18215.4 
0 0 18213.4 
0 0 18206.4 
-25.1671 106.981 11219.1 
1288.3 90.2032 1315.36 
0.00809538 -16.9085 -8.04394 
0 0 14878.8 
2.57491 3.73442 138.208 
6.35168 2.04843 147.937 
0 0 14881.1 
1.0012 3.57519 12.9018 
0 0 14881.2 
3.32866 2.62272 8.19446 
23.1811 -8.16993 226.614 
49.2754 46.9673 93.0855 
1.5671 -5.11864 143.898 
0 0 14881.5 
-2.00288 -2.85156 28.4088 
11.3788 16.2327 34.5119 
-0.33928 -1.82414 10.3674 
0 0 14877.5 
1.72556 0.155673 13.1899 
0 0 14879.9 
0 0 14879.2 
0 0 14878.8 
3.13199 -2.35107 36.6638 
-12.86 -4.2267 38.6425 
0.152807 -0.531517 13.707 
-17.1722 5.6905 25.661 
-42.0015 -11.4066 112.394 
14.3072 -13.9003 55.3128 
-4.07856 -7.48903 13.5452 
0 0 14895.4 
129.244 137.549 523.742 
-1.05916 2.62279 12.6527 
-109.111 -30.4973 -1216.23 
0 0 -18175.6 
0 0 -18174.7 
0 0 -18184.8 
0 0 -18178.9 
5.42205 32.092 -11875.4 
0 0 -18128.1 
0 0 -18187.6 
0 0 -18181.8 
-51.7615 -21.7572 -12986.5 
0 0 -18176.4 
0 0 -18181.5 
226.399 21.7191 -6159.57 
VECTORS moment double
0 0 0 
0 0 0 
0 0 0 
0 0 0 
0 0 0 
0 0 0 
0 0 0 
0 0 0 
0 0 0 
0 0 0 
0 0 0 
0 0 0 
0 0 0 
0 0 0 
0 0 0 
0 0 0 
0 0 0 
0 0 0 
0 0 0 
0 0 0 
0 0 0 
0 0 0 
0 0 0 
0 0 0 
0 0 0 
0 0 0 
0 0 0 
0 0 0 
0 0 0 
0 0 0 
0 0 0 
0 0 0 
0 0 0 
0 0 0 
0 0 0 
0 0 0 
0 0 0 
0 0 0 
0 0 0 
0 0 0 
0 0 0 
0 0 0 
0 0 0 
0 0 0 
0 0 0 
0 0 0 
0 0 0 
0 0 0 
0 0 0 
0 0 0 
0 0 0 
0 0 0 
0 0 0 
0 0 0 
0 0 0 
0 0 0 
0 0 0 
0 0 0 
0 0 0 
0 0 0 
0 0 0 
0 0 0 
0 0 0 
0 0 0 
0 0 0 
0 0 0 
0 0 0 
0 0 0 
0 0 0 
0 0 0 
0 0 0 
0 0 0 
0 0 0 
0 0 0 
0 0 0 
0 0 0 
0 0 0 
0 0 0 
0 0 0 
0 0 0 
0 0 0 
0 0 0 
0 0 0 
0 0 0 
0 0 0 
0 0 0 
0 0 0 
0 0 0 
0 0 0 
0 0 0 
0 0 0 
0 0 0 
0 0 0 
0 0 0 
0 0 0 
0 0 0 
0 0 0 
0 0 0 
0 0 0 
0 0 0 
0 0 0 
0 0 0 
0 0 0 
0 0 0 
0 0 0 
0 0 0 
0 0 0 
0 0 0 
0 0 0 
0 0 0 
0 0 0 
0 0 0 
0 0 0 
0 0 0 
0 0 0 
0 0 0 
0 0 0 
0 0 0 
0 0 0 
0 0 0 
0 0 0 
0 0 0 
0 0 0 
0 0 0 
0 0 0 
0 0 0 
0 0 0 
0 0 0 
0 0 0 
0 0 0 
0 0 0 
0 0 0 
0 0 0 
0 0 0 
0 0 0 
0 0 0 
0 0 0 
0 0 0 
0 0 0 
0 0 0 
0 0 0 
0 0 0 
0 0 0 
0 0 0 
0 0 0 
0 0 0 
0 0 0 
0 0 0 
0 0 0 
0 0 0 
0 0 0 
0 0 0 
0 0 0 
0 0 0 
0 0 0 
0 0 0 
0 0 0 
0 0 0 
0 0 0 
0 0 0 
0 0 0 
0 0 0 
0 0 0 
0 0 0 
0 0 0 
0 0 0 
0 0 0 
0 0 0 
0 0 0 
0 0 0 
0 0 0 
0 0 0 
0 0 0 
0 0 0 
0 0 0 
0 0 0 
0 0 0 
0 0 0 
0 0 0 
0 0 0 
0 0 0 
0 0 0 
0 0 0 
0 0 0 
0 0 0 
0 0 0 
0 0 0 
0 0 0 
0 0 0 
0 0 0 
0 0 0 
0 0 0 
0 0 0 
0 0 0 
0 0 0 
0 0 0 
0 0 0 
0 0 0 
0 0 0 
0 0 0 
0 0 0 
0 0 0 
0 0 0 
0 0 0 
0 0 0 
0 0 0 
0 0 0 
0 0 0 
0 0 0 
0 0 0 
0 0 0 
0 0 0 
0 0 0 
0 0 0 
0 0 0 
0 0 0 
0 0 0 
0 0 0 
0 0 0 
0 0 0 
0 0 0 
0 0 0 
0 0 0 
0 0 0 
0 0 0 
0 0 0 
0 0 0 
0 0 0 
0 0 0 
SCALARS num_collisions int 1
LOOKUP_TABLE default
1 
1 
1 
1 
1 
1 
1 
1 
1 
1 
1 
1 
1 
1 
1 
1 
1 
1 
1 
1 
1 
1 
1 
1 
1 
1 
1 
1 
1 
1 
1 
1 
1 
1 
1 
1 
1 
1 
1 
1 
1 
1 
1 
1 
1 
1 
1 
1 
1 
1 
1 
1 
1 
1 
1 
1 
1 
1 
1 
1 
1 
1 
1 
1 
1 
1 
1 
1 
1 
1 
1 
1 
1 
1 
1 
1 
1 
1 
1 
1 
1 
1 
1 
1 
1 
1 
1 
1 
1 
1 
1 
1 
1 
1 
1 
1 
1 
1 
1 
1 
1 
1 
1 
1 
1 
1 
1 
1 
1 
1 
1 
1 
1 
1 
1 
1 
1 
1 
1 
1 
1 
1 
1 
1 
1 
1 
1 
1 
1 
1 
1 
1 
1 
1 
1 
1 
1 
1 
1 
1 
1 
1 
1 
1 
1 
1 
1 
1 
1 
1 
1 
1 
1 
1 
1 
1 
1 
1 
1 
1 
1 
1 
1 
1 
1 
1 
1 
1 
1 
1 
1 
1 
1 
1 
1 
1 
1 
1 
1 
1 
1 
1 
1 
1 
1 
1 
1 
1 
1 
1 
1 
1 
1 
1 
1 
1 
1 
1 
1 
1 
1 
1 
1 
1 
1 
1 
1 
1 
1 
1 
1 
1 
1 
1 
1 
1 
1 
1 
1 
1 
1 
1 
1 
1 
1 
1 
1 
1 
1 
VECTORS pos double
-0.392152 -0.401479 -0.424081 
-0.403333 -0.203333 -0.411891 
-0.389385 -0.0122097 -0.423262 
-0.402763 0.397237 -0.411907 
-0.203538 -0.203538 -0.411892 
-0.203218 -0.00321788 -0.411888 
-0.196644 0.210922 -0.43007 
-0.201085 0.394664 -0.455329 
-0.030062 -0.396233 -0.417073 
-0.00366947 -0.203669 -0.411889 
-0.00360232 -0.00360232 -0.411892 
-0.0129702 0.176267 -0.393385 
0.00284416 0.365828 -0.44632 
-0.0449539 0.402755 -0.425893 
0.196963 -0.396559 -0.42575 
0.185593 -0.187498 -0.423704 
0.210176 0.000676837 -0.425694 
0.196578 0.0420808 -0.443688 
0.186549 0.196589 -0.425437 
0.396713 -0.403287 -0.411887 
0.39661 -0.20339 -0.411888 
0.396488 -0.00351175 -0.411892 
-0.380101 -0.407094 -0.348267 
-0.403333 -0.203333 -0.31978 
-0.383824 -0.00902528 -0.345105 
-0.402763 0.397237 -0.319806 
-0.348785 -0.413352 -0.335605 
-0.291719 -0.403322 -0.338359 
-0.203538 -0.203538 -0.319783 
-0.203218 -0.00321788 -0.319776 
-0.197107 0.434252 -0.427807 
-0.00968079 -0.414032 -0.361219 
-0.0907591 -0.409449 -0.368085 
-0.00366947 -0.203669 -0.319778 
-0.00360232 -0.00360232 -0.319781 
0.0402431 0.299137 -0.432827 
-0.00707175 0.22913 -0.395658 
0.0918828 0.348964 -0.429448 
0.199001 -0.40174 -0.34666 
0.172238 -0.183495 -0.347754 
0.2119 0.00600596 -0.349481 
0.396713 -0.403287 -0.319775 
0.39661 -0.20339 -0.319776 
0.396488 -0.00351175 -0.319782 
-0.390616 -0.404236 -0.271049 
-0.403333 -0.203333 -0.227803 
-0.376352 -0.00820883 -0.267152 
-0.402763 0.397237 -0.227839 
-0.203538 -0.203538 -0.227806 
-0.203218 -0.00321788 -0.227797 
-0.182874 0.189545 -0.324004 
-0.209878 0.41774 -0.345028 
-0.00366947 -0.203669 -0.2278 
-0.00360232 -0.00360232 -0.227805 
0.205813 -0.39795 -0.26671 
0.17328 -0.198875 -0.283246 
0.210812 0.00736671 -0.273341 
0.396713 -0.403287 -0.227795 
0.39661 -0.20339 -0.227797 
0.396488 -0.00351175 -0.227806 
-0.391237 -0.411024 -0.19 
-0.403333 -0.203333 -0.135992 
-0.387234 -0.0110818 -0.189471 
-0.402763 0.397237 -0.136038 
-0.186786 -0.389868 -0.351894 
-0.203538 -0.203538 -0.135996 
-0.203218 -0.00321788 -0.135985 
-0.224819 0.401719 -0.261933 
-0.00366947 -0.203669 -0.135988 
-0.00360232 -0.00360232 -0.135994 
-0.0185541 0.171266 -0.288874 
0.208492 -0.399988 -0.193039 
0.197082 -0.233512 -0.17436 
0.207678 0.00537959 -0.19841 
0.206126 0.197939 -0.353858 
0.396713 -0.403287 -0.135982 
0.39661 -0.20339 -0.135985 
0.396488 -0.00351175 -0.135995 
-0.392901 -0.396992 -0.111831 
-0.403333 -0.203333 -0.0443588 
-0.398789 -0.0108521 -0.112516 
-0.419629 0.193701 -0.0670195 
-0.402763 0.397237 -0.0444135 
-0.203538 -0.203538 -0.0443641 
-0.203218 -0.00321788 -0.044351 
-0.20848 0.19254 -0.21875 
-0.00366947 -0.203669 -0.0443546 
-0.00360232 -0.00360232 -0.0443618 
-0.000416993 0.194912 -0.220583 
0.21116 -0.399319 -0.115033 
0.204237 -0.228901 -0.100334 
0.2089 0.00490069 -0.121863 
0.206305 0.234857 -0.264189 
0.211668 0.399753 -0.0629113 
0.396713 -0.403287 -0.044347 
0.39661 -0.20339 -0.0443506 
0.396488 -0.00351175 -0.0443629 
0.396462 0.181067 -0.0676533 
0.399511 0.410393 -0.258361 
-0.390049 -0.391814 -0.0325357 
-0.403333 -0.203333 0.0471117 
-0.405004 -0.0111402 -0.0271632 
-0.402763 0.397237 0.047051 
-0.203538 -0.203538 0.0471056 
-0.203218 -0.00321788 0.0471199 
-0.22815 0.200848 -0.148759 
-0.00366947 -0.203669 0.0471158 
-0.00360232 -0.00360232 0.0471081 
0.0157793 0.203442 -0.143489 
0.21143 -0.404026 -0.0354389 
0.20454 -0.227967 -0.025506 
0.217311 0.00446464 -0.0464496 
0.190772 0.393269 0.0311455 
0.396713 -0.403287 0.0471246 
0.39661 -0.20339 0.0471205 
0.396488 -0.00351175 0.0471069 
0.39845 0.189264 0.0284038 
0.38639 0.405741 -0.173673 
-0.390738 -0.392239 0.0459643 
-0.403333 -0.203333 0.138463 
-0.403606 0.00492731 0.0490067 
-0.402763 0.397237 0.1384 
-0.203538 -0.203538 0.138457 
-0.203218 -0.00321788 0.138471 
-0.0053071 -0.405513 0.0145836 
-0.00366947 -0.203669 0.138467 
-0.00360232 -0.00360232 0.138459 
-0.020084 0.211192 -0.0745687 
0.20642 -0.405841 0.0481626 
0.212911 0.00531081 0.0302716 
0.194944 0.397271 0.127327 
0.396713 -0.403287 0.138476 
0.39661 -0.20339 0.138472 
0.396488 -0.00351175 0.138458 
0.395994 0.202513 0.123732 
0.403829 0.387425 -0.10052 
-0.3871 -0.394067 0.125495 
-0.403333 -0.203333 0.229765 
-0.393039 0.00522336 0.12701 
-0.41297 0.195639 0.211666 
-0.402763 0.397237 0.229705 
-0.203538 -0.203538 0.229759 
-0.203218 -0.00321788 0.229772 
-0.00366947 -0.203669 0.229768 
-0.00360232 -0.00360232 0.229761 
-0.0222885 0.207986 0.0290219 
0.213878 -0.401568 0.122255 
0.222211 -0.00503237 0.105851 
0.199075 0.397914 0.222021 
0.396713 -0.403287 0.229777 
0.39661 -0.20339 0.229773 
0.396488 -0.00351175 0.22976 
0.396146 0.196786 0.219915 
0.394905 0.388562 -0.0124739 
-0.426931 -0.389609 0.196868 
-0.403333 -0.203333 0.321093 
-0.416238 0.00136031 0.195052 
-0.401442 0.196586 0.309279 
-0.402763 0.397237 0.321043 
-0.203538 -0.203538 0.321088 
-0.203218 -0.00321788 0.321097 
-0.00366947 -0.203669 0.321096 
-0.00360232 -0.00360232 0.32109 
-0.00838203 0.197483 0.132845 
0.182283 -0.3962 0.1914 
0.191839 0.00693124 0.18549 