# vtk DataFile Version 2.0
Generated by NetDEM
ASCII 
DATASET POLYDATA
POINTS 76 double
-0.419884 -0.406053 -0.463994 
-0.412328 -0.400217 -0.388096 
-0.403333 -0.203333 -0.450028 
-0.403333 -0.203333 -0.350056 
-0.222882 -0.431794 -0.448417 
-0.211596 -0.405269 -0.351047 
-0.173649 0.197076 -0.461435 
-0.210559 0.186769 -0.389408 
-0.00366947 -0.203669 -0.45003 
-0.00366947 -0.203669 -0.350049 
0.010956 0.189431 -0.446948 
0.000340021 0.193038 -0.339527 
0.188198 -0.401609 -0.464751 
0.193952 -0.401086 -0.387295 
0.172503 -0.010036 -0.462704 
0.189326 -0.0142355 -0.381207 
0.175042 0.21035 -0.452992 
0.187222 0.193897 -0.363226 
0.401541 0.398114 -0.442782 
0.395995 0.394001 -0.336919 
-0.210559 0.186769 -0.389408 
-0.202758 0.196105 -0.286316 
0.000340021 0.193038 -0.339527 
-0.0043837 0.195199 -0.23621 
0.193952 -0.401086 -0.387295 
0.196987 -0.400992 -0.311261 
-0.4125 -0.00614643 -0.464439 
-0.406874 -0.00363106 -0.500003 
0.172503 -0.010036 -0.462704 
0.201192 -0.0284521 -0.500028 
0.401541 0.398114 -0.442782 
0.40153 0.403554 -0.500019 
-0.0276453 0.400757 -0.455856 
0.0101817 0.402801 -0.500001 
0.175042 0.21035 -0.452992 
0.204568 0.220786 -0.500005 
0.010956 0.189431 -0.446948 
-0.0015436 0.20778 -0.500002 
0.39661 -0.20339 -0.450007 
0.39661 -0.20339 -0.5 
-0.222882 -0.431794 -0.448417 
-0.203426 -0.406457 -0.500006 
0.396508 0.196508 -0.450007 
0.396508 0.196508 -0.5 
0.188198 -0.401609 -0.464751 
0.205916 -0.401146 -0.500026 
-0.173649 0.197076 -0.461435 
-0.204273 0.204384 -0.500031 
-0.419884 -0.406053 -0.463994 
-0.404438 -0.401127 -0.500007 
-0.236092 0.375508 -0.457221 
-0.232199 0.409709 -0.500001 
-0.0231596 -0.411098 -0.45077 
0.00538166 -0.419425 -0.500002 
0.396488 -0.00351175 -0.450007 
0.396488 -0.00351175 -0.5 
-0.403333 -0.203333 -0.450028 
-0.403333 -0.203333 -0.5 
-0.40295 0.19705 -0.450007 
-0.40295 0.19705 -0.5 
-0.402763 0.397237 -0.450007 
-0.402763 0.397237 -0.5 
-0.203538 -0.203538 -0.450007 
-0.203538 -0.203538 -0.5 
-0.203218 -0.00321788 -0.450007 
-0.203218 -0.00321788 -0.5 
-0.00366947 -0.203669 -0.45003 
-0.00366947 -0.203669 -0.5 
-0.00360232 -0.00360232 -0.450007 
-0.00360232 -0.00360232 -0.5 
0.196913 0.396913 -0.450007 
0.196913 0.396913 -0.5 
0.396713 -0.403287 -0.450007 
0.396713 -0.403287 -0.5 
0.175624 -0.21374 -0.46399 
0.157604 -0.256549 -0.500013 
LINES 38 114
2 0 1
2 2 3
2 4 5
2 6 7
2 8 9
2 10 11
2 12 13
2 14 15
2 16 17
2 18 19
2 20 21
2 22 23
2 24 25
2 26 27
2 28 29
2 30 31
2 32 33
2 34 35
2 36 37
2 38 39
2 40 41
2 42 43
2 44 45
2 46 47
2 48 49
2 50 51
2 52 53
2 54 55
2 56 57
2 58 59
2 60 61
2 62 63
2 64 65
2 66 67
2 68 69
2 70 71
2 72 73
2 74 75
POINT_DATA 76
SCALARS id int 1
LOOKUP_TABLE default
0
25
1
26
5
30
8
33
11
36
13
38
15
40
17
42
18
43
24
49
33
58
38
63
40
65
2
4
17
4
24
4
14
4
18
4
13
4
21
4
5
4
23
4
15
4
8
4
0
4
9
4
10
4
22
4
1
4
3
4
4
4
6
4
7
4
11
4
12
4
19
4
20
4
16
4
CELL_DATA 38
VECTORS force double
2.09534 0.310647 -15.2306 
0 0 -50.5676 
1.07419 1.0598 -12.807 
31.9706 2.31062 -180.864 
0 0 -28.2284 
0.751531 -1.57395 -16.5934 
12.8423 0.305935 -51.6104 
11.9345 -9.50714 -31.2139 
1.85801 1.75304 -7.85032 
-0.299215 2.467 -22.3511 
-2.14991 15.1353 -160.236 
1.13908 -10.3261 -31.8227 
6.78895 0.292979 -5.00097 
-1.18919 -0.699634 13.6281 
-19.524 34.1003 88.5258 
-4.32948 -2.5288 54.8158 
-1.56421 -0.348199 4.44211 
-6.41184 -2.56525 19.9562 
0.587115 1.6296 -5.04675 
0 0 13.6117 
-5.70795 -3.96796 25.0399 
0 0 13.6117 
-3.44896 0.374073 98.3265 
-20.0951 3.15551 178.289 
-1.24766 0.522661 29.2986 
-0.545458 -1.49167 5.50608 
-3.83286 1.22311 13.207 
0 0 13.6117 
0 0 85.9912 
0 0 13.6117 
0 0 13.6117 
0 0 13.6117 
0 0 13.6117 
0 0 53.1278 
0 0 13.6117 
0 0 13.6117 
0 0 13.6117 
22.4743 43.7721 42.739 
VECTORS moment double
0 0 0 
0 0 0 
0 0 0 
0 0 0 
0 0 0 
0 0 0 
0 0 0 
0 0 0 
0 0 0 
0 0 0 
0 0 0 
0 0 0 
0 0 0 
0 0 0 
0 0 0 
0 0 0 
0 0 0 
0 0 0 
0 0 0 
0 0 0 
0 0 0 
0 0 0 
0 0 0 
0 0 0 
0 0 0 
0 0 0 
0 0 0 
0 0 0 
0 0 0 
0 0 0 
0 0 0 
0 0 0 
0 0 0 
0 0 0 
0 0 0 
0 0 0 
0 0 0 
0 0 0 
SCALARS num_collisions int 1
LOOKUP_TABLE default
1 
1 
1 
1 
1 
1 
1 
1 
1 
1 
1 
1 
1 
1 
1 
1 
1 
1 
1 
1 
1 
1 
1 
1 
1 
1 
1 
1 
1 
1 
1 
1 
1 
1 
1 
1 
1 
1 
VECTORS pos double
-0.398933 -0.395796 -0.423146 
-0.403333 -0.203333 -0.400041 
-0.218308 -0.405708 -0.413777 
-0.206007 0.204232 -0.435835 
-0.00366947 -0.203669 -0.40004 
-0.0125386 0.191732 -0.395497 
0.210928 -0.400368 -0.422937 
0.210057 -0.00166059 -0.425632 
0.196502 0.21341 -0.419925 
0.38776 0.399755 -0.392328 
-0.218704 0.196224 -0.339855 
-0.00217836 0.208491 -0.291734 
0.203401 -0.417935 -0.349418 
-0.406874 -0.00363106 -0.500003 
0.201192 -0.0284521 -0.500028 
0.40153 0.403554 -0.500019 
0.0101817 0.402801 -0.500001 
0.204568 0.220786 -0.500005 
-0.0015436 0.20778 -0.500002 
0.39661 -0.20339 -0.5 
-0.203426 -0.406457 -0.500006 
0.396508 0.196508 -0.5 
0.205916 -0.401146 -0.500026 
-0.204273 0.204384 -0.500031 
-0.404438 -0.401127 -0.500007 
-0.232199 0.409709 -0.500001 
0.00538166 -0.419425 -0.500002 
0.396488 -0.00351175 -0.5 
-0.403333 -0.203333 -0.5 
-0.40295 0.19705 -0.5 
-0.402763 0.397237 -0.5 
-0.203538 -0.203538 -0.5 
-0.203218 -0.00321788 -0.5 
-0.00366947 -0.203669 -0.5 
-0.00360232 -0.00360232 -0.5 
0.196913 0.396913 -0.5 
0.396713 -0.403287 -0.5 
0.157604 -0.256549 -0.500013 
VECTORS dir_n double
0.0190646 -0.0186458 -0.999644 
1.97755e-17 0 -1 
-0.360456 -0.125112 -0.924348 
0.440387 0.222156 -0.869888 
3.54253e-17 0 -1 
-0.00399125 -0.276158 -0.961104 
0.0120511 0.0430134 -0.999002 
-0.205176 -0.00404262 -0.978717 
-0.192388 0.0987433 -0.976338 
0.0581716 -0.185128 -0.980991 
0.285647 0.0703514 -0.955749 
-0.0742097 -0.366078 -0.927621 
0.212681 0.134405 -0.967834 
1.52549e-16 -1.15823e-16 1 
2.5321e-17 -2.93749e-17 1 
4.09131e-17 3.46526e-17 1 
3.93265e-16 -4.53349e-17 1 
4.96817e-17 7.41709e-17 1 
2.06076e-16 -4.38561e-17 -1 
7.3466e-17 0 1 
3.82667e-17 -3.29263e-17 1 
7.3466e-17 0 1 
-7.99218e-17 2.47427e-17 1 
-9.05488e-17 1.28098e-17 1 
3.30468e-17 -2.63586e-17 1 
3.32966e-16 -1.38506e-17 1 
-7.16946e-17 6.21959e-17 1 
7.3466e-17 0 1 
1.16291e-17 0 1 
7.3466e-17 0 1 
7.3466e-17 0 1 
7.3466e-17 0 1 
7.3466e-17 0 1 
1.88225e-17 0 1 
7.3466e-17 0 1 
7.3466e-17 0 1 
7.3466e-17 0 1 
1.77425e-16 -8.39717e-17 1 
VECTORS dir_s double
0.949603 0.313214 0.012268 
1 0 0 
0.833979 0.400628 -0.379442 
-0.676471 -0.55493 -0.484189 
1 0 0 
0.25717 0.928502 -0.267859 
0.987877 -0.155149 0.00523671 
0.868934 -0.460934 -0.180258 
0.943987 0.290435 -0.15664 
-0.229224 0.953924 -0.193613 
-0.956037 0.0899364 -0.279113 
0.864655 0.439824 -0.242746 
0.974642 -0.0997028 0.200331 
-0.8619 -0.507079 9.50649e-18 
-0.496869 0.867825 3.24609e-17 
-0.863495 -0.504357 3.70529e-17 
-0.976108 -0.217285 1.54278e-16 
-0.928451 -0.371455 2.71537e-17 
0.338954 0.940803 -3.85726e-17 
1 0 0 
-0.821093 -0.570794 -2.0165e-17 
1 0 0 
-0.99417 0.107827 -9.22347e-17 
-0.987894 0.155128 -9.69808e-17 
-0.92234 0.38638 9.18407e-18 
-0.343429 -0.939179 3.89692e-17 
-0.95267 0.304008 -1.59343e-16 
1 0 0 
1 0 0 
1 0 0 
1 0 0 
1 0 0 
1 0 0 
1 0 0 
1 0 0 
1 0 0 
1 0 0 
0.456752 0.889594 4.3487e-18 
