# vtk DataFile Version 2.0
Generated by NetDEM
ASCII 
DATASET POLYDATA
POINTS 964 double
-0.418618 -0.407956 -0.463856 
-0.429563 -0.409354 -0.393485 
-0.448975 -0.195236 -0.450024 
-0.450002 -0.269822 -0.383435 
-0.448975 -0.195236 -0.450024 
-0.422759 -0.114701 -0.404467 
-0.411135 -0.0066775 -0.464313 
-0.370568 0.067558 -0.407152 
-0.411135 -0.0066775 -0.464313 
-0.408999 -0.0184301 -0.385731 
-0.450008 0.110486 -0.450031 
-0.370568 0.067558 -0.407152 
-0.438203 0.34576 -0.450045 
-0.355091 0.378207 -0.406723 
-0.438203 0.34576 -0.450045 
-0.450012 0.273632 -0.381847 
-0.271027 -0.429678 -0.459152 
-0.334735 -0.407469 -0.405285 
-0.271027 -0.429678 -0.459152 
-0.264574 -0.438741 -0.363327 
-0.307 -0.213297 -0.450039 
-0.320765 -0.205696 -0.351324 
-0.307 -0.213297 -0.450039 
-0.269872 -0.305079 -0.447142 
-0.307 -0.213297 -0.450039 
-0.23352 -0.15819 -0.410507 
-0.194694 -0.00951336 -0.450047 
-0.129176 -0.0556936 -0.390296 
-0.194694 -0.00951336 -0.450047 
-0.241085 -0.00465174 -0.352084 
-0.172928 0.172839 -0.463903 
-0.176933 0.0789078 -0.45026 
-0.172928 0.172839 -0.463903 
-0.135768 0.146766 -0.39628 
-0.253755 0.366016 -0.463087 
-0.230258 0.327993 -0.394773 
-0.253755 0.366016 -0.463087 
-0.355091 0.378207 -0.406723 
-0.056187 -0.396574 -0.460795 
-0.0859875 -0.389388 -0.396012 
-0.144715 -0.134365 -0.450015 
-0.129176 -0.0556936 -0.390296 
-0.0553633 -0.0870691 -0.450019 
0.0513688 -0.093964 -0.45007 
0.0366253 0.179133 -0.452398 
0.0268714 0.259611 -0.450032 
0.0366253 0.179133 -0.452398 
0.112381 0.138382 -0.397932 
-0.0301303 0.319597 -0.441509 
-0.112472 0.312934 -0.4007 
-0.0301303 0.319597 -0.441509 
-0.00608923 0.413055 -0.369072 
0.193043 -0.401636 -0.462891 
0.156495 -0.319138 -0.400801 
0.193043 -0.401636 -0.462891 
0.203611 -0.41371 -0.390232 
0.168242 -0.210359 -0.462962 
0.165311 -0.206293 -0.389467 
0.173214 -0.007025 -0.462538 
0.175033 0.0143551 -0.38547 
0.160781 0.208876 -0.46507 
0.119725 0.301495 -0.426655 
0.299645 0.402758 -0.416873 
0.284466 0.372262 -0.322875 
0.299645 0.402758 -0.416873 
0.371585 0.439136 -0.465068 
0.299645 0.402758 -0.416873 
0.330765 0.307821 -0.412636 
0.450028 -0.408133 -0.450061 
0.436413 -0.356477 -0.365553 
0.450028 -0.408133 -0.450061 
0.391226 -0.450031 -0.380892 
0.430871 -0.303253 -0.450024 
0.436413 -0.356477 -0.365553 
0.380331 0.0898479 -0.45002 
0.322911 0.0629652 -0.372692 
0.371585 0.439136 -0.465068 
0.3974 0.450405 -0.370663 
-0.429563 -0.409354 -0.393485 
-0.434836 -0.440717 -0.326162 
-0.450002 -0.269822 -0.383435 
-0.415594 -0.335165 -0.316013 
-0.408999 -0.0184301 -0.385731 
-0.45097 -0.0310078 -0.316576 
-0.449491 0.17405 -0.37281 
-0.450012 0.273632 -0.381847 
-0.449261 0.449791 -0.450029 
-0.450002 0.428291 -0.352394 
-0.334735 -0.407469 -0.405285 
-0.298551 -0.317714 -0.347875 
-0.23352 -0.15819 -0.410507 
-0.176614 -0.169724 -0.329115 
-0.154554 -0.0987045 -0.203288 
-0.114351 -0.0289127 -0.144033 
-0.154554 -0.0987045 -0.203288 
-0.166244 -0.0715637 -0.298796 
-0.154554 -0.0987045 -0.203288 
-0.236699 -0.0605554 -0.160914 
-0.0859875 -0.389388 -0.396012 
-0.00205774 -0.339321 -0.348838 
-0.0859875 -0.389388 -0.396012 
-0.160756 -0.376431 -0.33423 
0.313986 -0.238714 -0.11339 
0.292172 -0.320835 -0.0606701 
0.313986 -0.238714 -0.11339 
0.355177 -0.211388 -0.0264643 
0.313986 -0.238714 -0.11339 
0.294701 -0.161515 -0.177999 
-0.0321785 -0.0133803 -0.303179 
-0.00720354 -0.0224574 -0.393557 
-0.0321785 -0.0133803 -0.303179 
0.00477806 -0.00386573 -0.210752 
0.0268714 0.259611 -0.450032 
-0.0375986 0.222565 -0.38739 
0.119725 0.301495 -0.426655 
0.110024 0.363312 -0.317641 
0.119725 0.301495 -0.426655 
0.0668775 0.397345 -0.409057 
0.203611 -0.41371 -0.390232 
0.201709 -0.435499 -0.319189 
0.165311 -0.206293 -0.389467 
0.238003 -0.142481 -0.389177 
0.175033 0.0143551 -0.38547 
0.162206 0.0574417 -0.32951 
0.196664 0.11261 -0.455952 
0.27349 0.0658149 -0.443575 
0.196664 0.11261 -0.455952 
0.262542 0.17543 -0.444495 
0.196664 0.11261 -0.455952 
0.112381 0.138382 -0.397932 
0.284466 0.372262 -0.322875 
0.197141 0.307416 -0.337236 
0.391226 -0.450031 -0.380892 
0.339818 -0.410285 -0.304915 
0.436413 -0.356477 -0.365553 
0.352423 -0.31452 -0.33117 
0.436413 -0.356477 -0.365553 
0.450013 -0.309914 -0.2781 
0.450017 0.140057 -0.398802 
0.386425 0.165551 -0.325945 
0.450017 0.140057 -0.398802 
0.449944 0.234016 -0.364615 
0.424862 0.340181 -0.45636 
0.437628 0.255741 -0.459955 
0.424862 0.340181 -0.45636 
0.432939 0.368845 -0.376201 
-0.434836 -0.440717 -0.326162 
-0.434075 -0.452837 -0.243869 
-0.320765 -0.205696 -0.351324 
-0.319571 -0.139663 -0.276257 
-0.320765 -0.205696 -0.351324 
-0.407772 -0.175007 -0.312752 
-0.290746 0.267653 -0.450015 
-0.333895 0.23381 -0.366402 
-0.450012 0.273632 -0.381847 
-0.419601 0.260087 -0.287585 
0.196726 -0.329863 -0.247895 
0.252202 -0.297708 -0.308442 
-0.236699 -0.0605554 -0.160914 
-0.276173 -0.117906 -0.0891455 
-0.176933 0.0789078 -0.45026 
-0.273768 0.0926089 -0.404094 
0.0430509 -0.439195 -0.449682 
0.094312 -0.452585 -0.355787 
0.0430509 -0.439195 -0.449682 
0.00794809 -0.435325 -0.355078 
0.207882 -0.283313 -0.122853 
0.298228 -0.322397 -0.159197 
0.207882 -0.283313 -0.122853 
0.196988 -0.245078 -0.032909 
0.207882 -0.283313 -0.122853 
0.135344 -0.333196 -0.0677061 
0.207882 -0.283313 -0.122853 
0.12295 -0.232705 -0.137836 
0.208105 0.0658039 -0.195285 
0.203582 0.139163 -0.258798 
0.208105 0.0658039 -0.195285 
0.182178 0.0419759 -0.110431 
-0.0375986 0.222565 -0.38739 
0.00784997 0.294335 -0.340547 
0.255308 0.331293 -0.463886 
0.203473 0.384568 -0.395084 
0.201709 -0.435499 -0.319189 
0.094312 -0.452585 -0.355787 
0.201709 -0.435499 -0.319189 
0.262666 -0.446992 -0.241195 
0.201709 -0.435499 -0.319189 
0.174907 -0.427864 -0.221895 
0.0513688 -0.093964 -0.45007 
0.134898 -0.0968395 -0.397468 
0.0513688 -0.093964 -0.45007 
0.0233493 -0.11897 -0.347714 
0.162206 0.0574417 -0.32951 
0.125128 0.0640075 -0.266444 
0.162206 0.0574417 -0.32951 
0.197176 -0.0319139 -0.275727 
0.27349 0.0658149 -0.443575 
0.322911 0.0629652 -0.372692 
0.112381 0.138382 -0.397932 
0.0493881 0.119683 -0.327161 
0.37871 -0.217662 -0.450081 
0.33624 -0.176548 -0.369505 
0.37871 -0.217662 -0.450081 
0.450026 -0.208896 -0.380594 
0.381019 -0.108496 -0.450049 
0.450022 -0.106925 -0.377703 
0.381019 -0.108496 -0.450049 
0.3465 -0.0752883 -0.362276 
0.449944 0.234016 -0.364615 
0.448467 0.218573 -0.26587 
0.449944 0.234016 -0.364615 
0.437628 0.255741 -0.459955 
-0.434075 -0.452837 -0.243869 
-0.389303 -0.439659 -0.168795 
-0.176614 -0.169724 -0.329115 
-0.116916 -0.20492 -0.257029 
-0.176614 -0.169724 -0.329115 
-0.229277 -0.171012 -0.244126 
-0.241085 -0.00465174 -0.352084 
-0.294542 -0.040634 -0.271072 
-0.359881 0.140947 -0.339969 
-0.347992 0.196909 -0.257967 
-0.359881 0.140947 -0.339969 
-0.333895 0.23381 -0.366402 
-0.158759 -0.44813 -0.391723 
-0.264574 -0.438741 -0.363327 
-0.129176 -0.0556936 -0.390296 
-0.166244 -0.0715637 -0.298796 
-0.241895 0.0480654 -0.219439 
-0.245887 0.0363854 -0.120217 
-0.0553203 0.12686 -0.443007 
0.0198529 0.0477904 -0.450109 
0.094312 -0.452585 -0.355787 
0.0802748 -0.41634 -0.271222 
0.450004 -0.331959 -0.0678353 
0.407268 -0.28296 -0.143813 
0.450004 -0.331959 -0.0678353 
0.448177 -0.269899 0.0105446 
0.0198529 0.0477904 -0.450109 
0.032339 0.0439422 -0.354986 
0.0668775 0.397345 -0.409057 
0.145345 0.450018 -0.450021 
0.262666 -0.446992 -0.241195 
0.302982 -0.387832 -0.209048 
0.156495 -0.319138 -0.400801 
0.0999564 -0.287678 -0.303802 
0.156495 -0.319138 -0.400801 
0.0825522 -0.342215 -0.440689 
0.125128 0.0640075 -0.266444 
0.110818 -0.0227232 -0.207087 
0.125128 0.0640075 -0.266444 
0.0424875 0.0708761 -0.254915 
0.262542 0.17543 -0.444495 
0.333772 0.208797 -0.399101 
0.262542 0.17543 -0.444495 
0.23917 0.234993 -0.379632 
0.352423 -0.31452 -0.33117 
0.252202 -0.297708 -0.308442 
0.450022 -0.106925 -0.377703 
0.450007 -0.146712 -0.285989 
0.450022 -0.106925 -0.377703 
0.437486 -0.0367676 -0.307562 
0.386425 0.165551 -0.325945 
0.333772 0.208797 -0.399101 
0.386425 0.165551 -0.325945 
0.371966 0.166623 -0.227034 
0.330765 0.307821 -0.412636 
0.333772 0.208797 -0.399101 
0.432939 0.368845 -0.376201 
0.399808 0.300186 -0.308835 
0.432939 0.368845 -0.376201 
0.439366 0.401045 -0.296223 
-0.389303 -0.439659 -0.168795 
-0.461831 -0.452443 -0.122578 
-0.389303 -0.439659 -0.168795 
-0.368983 -0.362868 -0.11611 
-0.368983 -0.362868 -0.11611 
-0.385946 -0.269149 -0.146574 
-0.294542 -0.040634 -0.271072 
-0.353652 0.0114765 -0.233278 
-0.294542 -0.040634 -0.271072 
-0.319571 -0.139663 -0.276257 
-0.450002 0.428291 -0.352394 
-0.449594 0.374002 -0.268419 
-0.450002 0.428291 -0.352394 
-0.382592 0.450002 -0.281805 
0.355177 -0.211388 -0.0264643 
0.334812 -0.165188 0.0598496 
0.355177 -0.211388 -0.0264643 
0.326292 -0.270112 0.0491383 
0.0233493 -0.11897 -0.347714 
0.014274 -0.101058 -0.249765 
0.032339 0.0439422 -0.354986 
0.0493881 0.119683 -0.327161 
-0.00261381 0.437406 -0.464607 
-0.00608923 0.413055 -0.369072 
0.302982 -0.387832 -0.209048 
0.270972 -0.431469 -0.127092 
0.302982 -0.387832 -0.209048 
0.298228 -0.322397 -0.159197 
0.302982 -0.387832 -0.209048 
0.339818 -0.410285 -0.304915 
0.0424875 0.0708761 -0.254915 
0.0493881 0.119683 -0.327161 
0.0424875 0.0708761 -0.254915 
0.0010613 0.112578 -0.186637 
0.349237 0.450025 -0.264629 
0.381506 0.426815 -0.188224 
0.349237 0.450025 -0.264629 
0.439366 0.401045 -0.296223 
0.450026 -0.208896 -0.380594 
0.390833 -0.225909 -0.301851 
-0.461831 -0.452443 -0.122578 
-0.443081 -0.456786 -0.0032689 
-0.319571 -0.139663 -0.276257 
-0.338712 -0.219801 -0.219596 
-0.319571 -0.139663 -0.276257 
-0.320217 -0.116884 -0.178905 
-0.45097 -0.0310078 -0.316576 
-0.447881 -0.0976499 -0.257743 
-0.310801 0.445661 -0.351255 
-0.233487 0.448876 -0.287926 
-0.310801 0.445661 -0.351255 
-0.221527 0.448512 -0.414091 
-0.310801 0.445661 -0.351255 
-0.382592 0.450002 -0.281805 
-0.160756 -0.376431 -0.33423 
-0.222029 -0.350453 -0.235384 
[...]
POINT_DATA 964
SCALARS id int 1
LOOKUP_TABLE default
0
25
1
26
1
152
2
103
2
27
3
103
4
84
4
54
5
30
5
105
6
51
6
180
6
31
7
81
7
77
8
58
8
133
9
134
9
84
10
35
11
81
12
66
13
38
13
69
14
139
14
189
15
91
15
40
16
41
17
42
18
39
19
44
19
24
19
98
20
46
20
45
21
46
23
172
24
124
25
50
26
226
27
127
28
54
29
104
30
250
31
76
32
237
32
162
32
57
35
160
35
130
36
136
36
111
36
192
37
108
37
312
38
63
39
214
39
89
40
65
41
141
42
67
43
68
43
93
43
69
44
143
45
120
46
95
46
195
48
97
48
73
49
74
49
99
50
75
51
126
51
311
53
154
54
179
56
241
57
356
58
78
60
85
60
185
61
240
61
465
61
340
61
161
62
193
62
417
63
164
64
144
65
85
65
90
65
140
66
166
66
112
67
92
67
267
68
172
69
138
71
146
71
121
72
96
72
171
73
273
73
74
75
100
76
251
76
151
77
102
79
279
79
154
80
105
81
162
82
107
83
88
85
165
86
295
86
371
88
113
89
94
90
115
91
256
91
110
92
142
92
117
93
123
93
118
95
241
96
196
96
222
97
123
97
348
98
123
99
173
99
149
100
125
100
101
101
326
102
177
102
126
104
329
104
204
111
446
111
346
112
186
113
138
114
189
115
215
115
240
115
120
117
138
117
238
119
199
119
149
121
170
125
150
126
401
126
357
127
176
129
282
129
159
129
204
130
205
132
361
133
203
133
183
134
153
136
265
137
248
137
272
138
163
139
209
141
147
141
146
141
166
141
322
142
292
144
169
146
170
150
350
153
253
153
158
156
315
156
190
157
258
157
309
158
183
158
188
160
206
160
210
161
341
161
360
164
188
165
190
166
191
167
322
168
198
168
218
168
193
169
214
171
297
171
322
172
197
173
198
174
199
174
298
175
275
176
277
177
301
179
279
179
201
182
333
182
358
184
263
184
282
186
336
186
411
186
331
188
288
188
212
189
263
189
239
192
217
192
271
193
268
194
344
194
319
195
221
195
220
197
223
199
318
201
354
202
279
202
253
202
257
203
208
204
254
205
225
206
251
206
207
207
390
207
336
209
234
210
235
212
238
215
290
216
341
217
266
217
410
218
243
219
243
220
245
221
296
224
249
225
300
228
257
228
429
229
429
229
304
231
462
231
337
231
383
232
356
232
381
232
406
232
456
233
388
233
253
234
308
234
258
235
260
236
386
238
337
243
294
244
344
244
299
244
444
244
319
245
265
246
296
248
373
248
348
249
274
251
331
254
304
257
352
259
282
260
285
261
320
261
445
262
289
262
344
263
264
265
320
266
347
266
271
268
368
268
293
273
298
275
400
276
280
276
361
276
306
277
375
278
301
278
327
280
305
284
309
285
310
287
338
288
313
289
314
289
333
290
315
292
317
298
398
300
381
301
377
305
355
308
383
310
335
310
385
314
339
315
435
316
472
316
321
318
374
321
497
323
348
326
401
326
375
327
353
330
335
331
405
336
341
337
388
337
432
338
463
339
469
343
374
346
395
352
428
354
453
356
357
358
359
358
409
360
405
362
368
362
367
363
393
365
486
367
472
368
393
369
493
369
463
373
397
373
422
377
402
380
381
380
480
386
461
389
469
390
486
392
417
393
494
395
470
395
440
397
398
402
452
408
433
410
441
412
482
414
463
423
448
432
487
434
479
435
490
444
469
445
470
451
452
454
479
460
490
462
482
470
495
491
495
304
0
354
0
454
0
127
0
402
0
26
0
125
0
3
0
278
0
54
0
104
0
20
1
121
1
96
1
296
1
261
1
195
1
48
1
316
1
149
1
196
1
122
1
298
1
86
1
245
2
320
2
175
2
75
2
80
2
125
2
415
2
445
2
90
2
45
2
156
2
119
3
344
3
94
3
319
3
239
3
194
3
204
3
53
4
17
4
122
4
49
4
47
4
180
4
83
4
0
4
74
4
88
4
71
4
10
4
64
4
114
4
55
4
16
4
24
4
2
4
20
4
72
4
109
4
12
4
8
4
5
4
15
4
38
4
66
4
18
4
70
4
9
4
60
4
3
4
23
4
21
4
68
4
131
4
11
4
4
4
14
4
6
4
147
4
13
4
43
4
135
4
34
4
7
4
33
4
110
4
87
4
22
4
29
4
1
4
94
4
187
4
CELL_DATA 482
VECTORS force double
-52.3471 -157.646 306.092 
-0.414594 7.31469 -13.8637 
-1.58953 -4.99015 -10.4181 
-962.322 2131.83 457.381 
-321.642 1420.77 1291.53 
-242.119 1597.12 776.041 
45.9279 -10.5437 -50.5824 
53.1666 20.2394 -9.84018 
-1.61661 7.04174 -139.197 
19.546 -3.01934 -68.3307 
-307.816 255.131 371.007 
-79.347 64.1141 455.945 
-126.799 116.159 289.932 
-497.341 13.1186 996.839 
-567.685 171.995 262.171 
14.2972 23.0614 -38.2665 
-16.8713 -29.592 -96.1737 
63.8908 23.3329 47.0431 
59.8595 36.151 186.968 
-405.099 -268.786 -694.723 
-345.923 60.3241 634.532 
407.426 -17.9306 519.205 
34.9972 -48.4401 -50.1037 
-5.82048 31.9971 236.462 
13.8429 23.4157 -29.2812 
-24.9122 -12.8935 -112.748 
-31.1861 4.5659 -21.4536 
11.8656 22.4363 -113.152 
-94.2945 -561.98 -446.029 
19.1517 -18.8224 -65.0793 
1.71574 -24.7995 9.37103 
645.619 31.7915 -480.47 
51.1651 410.242 -539.669 
407.443 244.916 -520.675 
1827.51 1526.91 -869.031 
1479.84 1653.45 -31.7624 
940.587 1048.57 -30.4236 
-30.1631 33.1543 -56.27 
66.941 -53.3155 110.099 
112.936 39.1039 -627.505 
-1.79002 5.33394 -3.95698 
98.8672 -115.825 -207.016 
20.8351 -130.499 -92.0461 
-3.34614 4.51789 -73.2443 
6.97509 -46.5255 106.141 
-63.162 9.02246 -51.6927 
-7.73797 127.876 -481.522 
239.844 -110.225 -579.643 
120.303 150.972 -521.431 
-253.265 157.47 1831.42 
-213.761 -168.56 -761.256 
-8.22584 13.3606 -12.4347 
-0.185923 3.08432 -5.20501 
-0.912716 -4.72771 8.19154 
-11.9232 -20.1703 14.5338 
-3.70493 -3.75057 -5.88295 
42.2206 26.2861 326.952 
11.387 -51.739 48.7049 
35.8421 -64.7555 46.144 
-27.8043 -0.88258 -17.2396 
44.3306 1619.79 1108.94 
24.5589 -11.4087 -59.4525 
90.6471 14.8114 350.617 
85.0741 94.5958 476.637 
-64.7694 -9.0588 226.119 
-177.321 -15.7731 300.435 
-131.601 -32.7972 29.8424 
-439.058 -288.411 387.842 
-49.5538 -96.8711 -235.483 
130.86 186.713 -313.322 
2.06264 522.913 -1676.56 
58.0545 105.066 1676.87 
-103.249 311.063 1133.76 
-151.65 -128.766 372.945 
3.1936 42.4355 -621.056 
53.3154 32.604 -365.011 
6.96767 7.2071 -14.2315 
-91.465 111.646 -118.421 
6.25948 -6.69068 4.98834 
-182.916 88.351 145.729 
13.7051 8.2624 -11.3485 
-15.5869 -12.4826 -108.429 
-3.49314 -9.46382 -28.3624 
-14.9323 2.72221 17.2541 
-0.179465 5.79099 2.04625 
11.1018 12.768 -26.9473 
4.31086 -21.3111 24.8384 
7.6939 7.80571 -5.87492 
0.443147 -2.06975 3.31896 
8.72164 -33.5166 -663.171 
5.89573 -6.30013 -13.5013 
62.3841 8.08368 -149.08 
-61.7732 6.55074 -39.4611 
-31.5977 7.22071 -65.0839 
-874.61 198.327 309.534 
-639.894 25.9786 -414.188 
18.7843 16.2853 7.47714 
-0.0496526 8.72081 8.94837 
-121.661 41.916 -67.5446 
-6.7582 -36.5307 -382.694 
-147.959 -149.727 562.939 
-250.079 -116.036 1126.29 
-270.705 -16.5204 -937.167 
102.529 -12.1157 -321.9 
84.3546 765.438 1271.37 
-52.5882 -1509.46 1266.73 
124.403 17.827 -424.841 
-48.6152 23.1457 -4.19333 
-9.85133 10.9467 -30.9079 
66.0717 62.1191 -322.872 
42.038 -45.1412 -20.0631 
-10.4573 -11.6119 22.5334 
26.0577 -9.46482 10.0347 
-250.116 39.6044 -892.301 
0.793235 1.89941 -16.4606 
-51.7639 -38.3719 -75.2848 
-17.2193 1.43208 -69.6641 
-1.65277 1.88008 -0.198572 
9.84634 -5.27224 -10.6798 
116.025 111.388 114.536 
-9.54566 1.53654 5.1553 
11.0465 -0.833469 -9.07509 
-29.6931 -65.4162 -34.7374 
-1.1666 -50.6366 -5.7565 
-37.9736 -0.353631 -87.7465 
14.0404 -21.8151 -65.5398 
-158.552 -72.4692 -127.848 
-229.18 -155.492 -306.719 
101.36 -102.562 -77.3472 
1413.81 -265.648 242.197 
1155.59 -179.903 289.326 
-12.1588 -62.8879 -42.4303 
-153.827 103.386 -178.305 
50.5867 -103.446 -40.0854 
82.7767 -479.484 -687.705 
250.271 -769.117 -635.55 
14.2038 1.45769 208.708 
16.2222 0.0557187 82.609 
-0.848152 -2.63072 -16.8979 
7.35675 -87.8013 132.538 
9.78311 -295.423 290.386 
1.1249 19.3644 18.7899 
-15.4126 55.5066 23.8333 
-1.2501 -1.39502 3.37508 
1.89109 8.12764 -7.98833 
-34.8022 6.54074 17.0188 
-229.57 -128.489 -403.188 
-94.1027 46.6964 -226.202 
-7.26761 1.06261 -21.5161 
8.76619 -19.108 -19.8336 
-35.7534 21.9618 55.0916 
-60.9452 -104.258 -252.75 
30.5524 -17.8022 -98.2349 
279.024 -183.076 -398.811 
208.05 -273.687 -828.641 
-653.851 -127.952 -1409.53 
6.04871 -18.3795 -133.128 
10.2589 413.682 373.318 
11.7832 545.352 20.721 
-10.5373 36.0255 7.44067 
-53.9465 1.83248 -4.96813 
-16.5533 0.166072 10.1828 
-3.87257 41.9577 -0.994951 
-28.4156 246.733 218.66 
0.656203 -2.47217 0.196871 
44.8135 63.1432 35.7834 
52.2433 80.0243 76.5426 
1.79733 54.0996 -68.4221 
-11.9179 17.8091 -1.82162 
1303.47 -557.565 -165.736 
846.164 -218.24 89.7126 
22.6541 84.3532 72.5472 
24.5025 -1.93771 -52.1332 
-512.296 -1038.64 -943.671 
-234.444 154.763 16.4983 
-575.258 -1837.89 -1660.4 
-585.27 -576.667 -786.762 
1.51173 3.03177 -12.3673 
6.25108 -7.33562 -7.68351 
-536.326 -261.134 -905.978 
3.16842 -11.8748 11.6091 
39.2068 6.78654 -45.591 
28.2581 -124.476 -166.084 
-26.5109 -5.65355 -50.0193 
23.3668 -14.2484 76.0238 
-4.68233 7.77758 27.7098 
0.280507 -8.28124 -20.9087 
-29.5606 115.539 449.033 
-187.031 563.546 608.676 
-2.84815 -383.077 -242.357 
-33.4129 -389.896 -1713.52 
-5.99981 -23.6222 37.619 
5.46184 1.58905 -9.89786 
-135.751 651.391 686.496 
-7.61368 4.87373 -97.827 
-176.254 33.6689 -46.9414 
-16.5392 -4.64332 13.3935 
12.5426 -2.83264 -4.75757 
8.48928 7.48078 -37.3249 
20.7785 2.32245 -43.6984 
9.89741 -6.33124 -12.0353 
-41.4831 18.905 49.1358 
-24.4537 12.8148 66.252 
-188.889 -108.959 -74.2563 
30.5602 108.338 -7.84959 
145.379 -98.567 -26.5668 
43.5475 11.9245 -312.036 
-0.6165 -3.21407 -1.89538 
-2.07844 7.13287 -5.9633 
76.2769 -41.6663 -73.6082 
15.1815 22.4484 86.5632 
4.52946 23.4766 35.4071 
-30.3965 8.51989 57.4488 
25.1132 7.60654 -62.0937 
-48.188 18.4467 10.9961 
-28.3798 10.98 -17.3541 
0.705114 -2.57798 -9.61659 
1.95662 -3.62918 -19.622 
7.626 -0.767457 -18.9926 
-64.0867 -165.445 -762.014 
-203.463 288.204 -178.019 
-57.411 65.5467 38.3432 
-88.543 168.272 100.918 
13.2433 1.87264 -3.7377 
-59.7454 30.1837 160.105 
3.47806 -7.82504 -12.2984 
1.42822 -498.945 83.5872 
-51.487 -553.93 108.081 
-257.34 -305.999 571.807 
-159.466 -258.888 30.4361 
198.838 54.251 82.4725 
-177.715 153.362 41.7739 
3.38542 14.8106 -25.2549 
74.1706 -1.45308 51.7599 
39.039 -1.45346 59.5263 
19.8051 -16.3752 -31.1015 
-3.45547 7.23862 -63.3543 
14.9805 3.09858 -86.0807 
115.615 26.3629 -161.652 
-3.9977 49.7763 -49.9695 
-34.0684 48.4764 -40.2358 
-5.44543 -35.8276 -40.4256 
-26.8211 -26.1257 -6.63602 
-5.0767 4.88618 -2.56102 
-59.9851 -50.1117 552.863 
21.298 -36.2749 65.1865 
2.27519 0.231553 -9.20676 
38.3149 4.02133 -45.6713 
10.7681 0.943849 -16.4187 
15.0594 -5.46739 -34.4826 
-20.8503 8.05877 38.2888 
22.5753 17.7813 -22.69 
50.5327 104.081 -93.0376 
-177.675 -35.5628 -356.672 
-7.18816 7.37566 -17.4995 
-4.03787 4.48002 15.5697 
-6.8513 13.2177 21.8082 
7.44133 -8.41208 -9.54345 
-7.23469 8.43226 -3.96468 
-0.903586 -5.3291 30.7942 
12.2229 60.5178 -66.9929 
-7.05393 -3.17689 37.2744 
13.2084 -40.8711 13.4342 
5.97218 -35.9867 39.1992 
-1.33359 12.6293 -9.3478 
-2.26442 -2.15334 -1.33533 
-2.97004 -2.15798 -16.9488 
0.468192 11.8562 -5.22972 
58.5077 -16.7751 15.9009 
-9.9776 7.50865 -59.0912 
7.64896 -3.56846 -39.0483 
60.0699 28.8228 -429.913 
-22.8408 -79.8909 48.3583 
-1.45318 -1.60399 -27.6011 
14.2238 0.356145 -17.2476 
41.8343 -60.4225 105.723 
-11.7839 -144.221 68.4881 
-12.8054 -57.37 2.84831 
24.7879 -236.014 159.888 
-2.43379 -30.9645 -6.70787 
-23.5756 -87.587 -139.465 
-799.34 568.725 367.068 
-435.459 788.243 -67.5522 
1.12325 -3.2711 -7.77079 
14.0302 -13.2519 -4.09684 
11.0047 -0.868583 -47.9315 
5.65224 -2.33907 -12.1344 
13.5039 -13.0026 45.4823 
141.312 122.931 512.15 
13.8972 3.28262 14.3701 
7.34018 3.56972 -14.2027 
48.5384 21.6674 -21.5004 
-14.1429 -10.3372 10.3055 
15.0783 -9.28941 -7.81232 
-10.4617 -3.58778 -27.6108 
-13.6543 -2.57935 4.39686 
-15.8148 60.8128 106.738 
-1.89031 -0.175934 -8.67152 
0.651867 -1.68802 -4.40058 
-29.3416 84.8021 -1064.32 
0.0906646 -0.0490818 -1.10034 
-0.165194 -3.29555 -2.01097 
-0.373074 3.59971 -0.629747 
0.181777 0.668348 6.96214 
-0.547477 4.05808 -5.36195 
-15.6504 23.4469 12.0997 
-17.7843 -6.32347 -28.0753 
-0.681883 0.11374 0.998606 
-0.170844 1.32412 1.40621 
-67.8091 -71.8045 -477.02 
-1.05341 1.11345 0.465008 
-132.512 58.0714 208.229 
8.29509 -15.7411 -18.6067 
50.9384 3.27239 -5.98431 
6.67238 -1.24259 -1.88292 
0.564813 1.96426 -5.03798 
-148.234 56.6774 646.865 
0.394592 -21.3691 -39.9114 
0.714479 14.369 -27.4714 
-1.12478 0.989905 1.84143 
-14.5 34.0323 -11.6558 
10.2709 5.17663 25.5262 
-14.6295 55.3826 228.331 
4.2351 -3.75706 -6.39972 
-16.807 -5.91459 -36.4465 
13.8075 209.276 -113.246 
-0.0662729 199.238 -100.355 
31.8233 -49.1409 -6.88209 
5.10476 -29.054 -26.0202 
-385.232 303.857 -207.837 
-9.17266 -46.5357 4.75227 
5.60316 -8.76266 -6.56375 
0.879401 2.0609 -12.811 
-21.0126 3.69622 26.3107 
-2.77511 0.856132 -6.0862 
-9.02329 8.6864 0.262049 
13.5272 -11.657 12.7191 
-8.85503 -5.32793 -9.91717 
-0.0888387 2.12958 2.94954 
-0.193153 0.0116014 1.9371 
-2.74969 -10.5901 19.177 
-3.39706 14.1215 -17.8048 
3.13666 -0.205799 -3.00083 
-2.77671 1.87179 -8.18321 
93.552 -65.4175 -20.7183 
1.94574 -4.13709 -16.1163 
3.57735 -1.72421 -25.8282 
1.36122 -0.890594 2.51064 
5.88073 -23.0562 0.0131979 
4.07073 -1.17557 -11.2776 
-3.3491 1.38449 1.15402 
4.8875 1.48923 3.91439 
-38.5911 26.3216 19.8424 
4.83111 -23.9118 -15.7605 
2.29762 -1.97188 1.93965 
-4.17928 -0.148557 -4.54177 
277.88 564.972 -696.223 
78.6831 636.027 -162.223 
-2.46864 1.17133 -21.0897 
7.41973 -2.52839 27.3162 
-4.2278 1.61446 -12.2672 
4.40459 58.3145 -51.754 
-4.97097 -0.0777113 8.71559 
-4.47418 -1.05189 -8.78204 
10.3314 4.43575 3.29121 
0.997859 -9.40877 -8.37105 
-8.37917 11.0707 -7.43314 
0.147892 1.80373 -3.32765 
-139.382 -579.278 193.543 
-3.7229 -9.98165 -18.7465 
0.940537 0.65444 1.81874 
6.62046 -0.101687 -9.33665 
-2.91077 -11.8795 27.8489 
2.39218 -1.0901 -1.89522 
1.36825 -2.06558 -4.67387 
-2.42722 2.11699 -9.95234 
3.4277 -0.645615 3.08031 
-2.52847 -1.3879 -19.5653 
16.2412 -5.00224 -17.9995 
3.85908 -7.37279 -6.297 
4.02816 5.08003 12.0512 
-8.3665 -0.697511 -3.14731 
-1.16064 2.12025 3.63793 
10.9029 45.9779 -50.2267 
-2.83193 1.36861 -6.09683 
-0.818257 -0.673701 1.43045 
14.1552 -1.86889 -7.6854 
3.01413 -1.49473 3.94103 
9.60817 1.35146 6.19712 
-21.701 29.1516 54.5188 
4.13115 1.8176 6.22844 
1.00563 0.623978 1.54759 
-0.250545 -4.1352 -62.6874 
19.9753 217.6 42.4282 
49.1544 -20.9423 19.895 
-33.4166 40.2684 -35.1686 
5.94072 12.5255 18.7418 
975.957 426.904 -1357.19 
-222.375 -47.9771 131.301 
902.559 -206.676 -504.199 
34.0567 49.5967 166.92 
-21.0873 -7.53433 8.41344 
-159.908 -125.056 290.422 
-24.2045 182.439 -504.158 
-17.2207 2.70215 -10.7841 
-13.0833 172.245 54.2642 
-481.639 292.482 -567.997 
-2.38588e-09 -7.0718e-15 -2.38555e-09 
-59.681 -20.2025 544.641 
-10.2297 6.43638 17.0053 
-8.84 6.06812 30.2072 
2.35046 -0.562023 7.97363 
0.1296 2.78816 4.95878 
53.2582 79.4327 -172.81 
8.87769 0.366621 -1.87362 
3.155 11.9504 -58.7013 
-0.0876841 2.26675 4.45547 
1.45307 12.5298 5.92813 
13.6986 3.93611 -4.23923 
-580.802 -527.283 435.527 
-10.2358 19.4609 -12.7353 
215.943 -215.187 -182.16 
-156.038 149.048 116.984 
-4.55115 -26.6801 -11.4901 
137.223 261.393 102.812 
33.4575 -126.155 -100.583 
-90.6449 -345.865 359.305 
10.8657 -32.7931 -47.2997 
-5.83803 -4.74405 29.1639 
-16.258 19.1358 77.5834 
2.38588e-09 6.3458e-15 13.6117 
189.532 -234.934 1217.41 
-1.67459e-14 4.10198e-15 13.6117 
43.1367 -143.33 -38.5592 
-38.3674 28.5008 44.8355 
47.5404 -69.0663 470.466 
3.08088 -354.836 -860.094 
9.22801 42.7126 123.046 
199.386 180.02 839.087 
-2.40603 -25.8449 93.0397 
-6.66936 4.02041 23.4789 
15.1288 9.36094 -9.78609 
1.08203 2.03929 11.4349 
12.729 -53.4073 -53.9349 
-135.788 -178.754 395.168 
421.31 353.079 2156.68 
-173.31 20.4945 -608.967 
-180.96 -37.4864 -299.615 
2.77281 -1.04807 12.2463 
265.208 2.92609 164.978 
-22.9579 -36.0908 57.2248 
49.5314 2.29017 -24.0953 
-25.4929 16.1669 112.586 
-87.0259 18.503 198.951 
108.465 21.5882 120.901 
-7.90589 -4.23722 65.7429 
-2.42246e-14 9.25727e-15 13.6117 
-0.920904 -36.6348 267.583 
-15.4872 23.4002 96.3482 
289.354 203.88 496.804 
16.7381 9.31587 22.4751 
-18.303 -32.6314 40.4186 
104.514 -71.6215 -16.1193 
0.00959178 -0.00380104 13.6421 
14.2302 210.222 253.835 
-3.42505 -41.3405 97.6694 
-19.4834 -53.1803 11.915 
133.905 -74.9857 437.784 
-52.0012 -214.39 339.151 
73.8402 -68.1514 153.816 
199.218 225.309 788.838 
0.964137 -1.77596 12.9831 
-21.8405 -10.5156 37.8707 
216.631 -187.579 566.423 
0.117453 -1.44825 13.2632 
7.33419 11.5834 22.3793 
1.04204 -1.30096 -28.4702 
3.3694e-15 -4.19137e-15 13.6117 
-0.327124 -7.03262 51.9457 
2.01996 1.55649 44.7287 
2.35939 17.9963 32.8682 
0.000803101 -9.11036e-05 13.611 
VECTORS moment double
0 0 0 
0 0 0 
0 0 0 
0 0 0 
0 0 0 
0 0 0 
0 0 0 
0 0 0 
0 0 0 
0 0 0 
0 0 0 
0 0 0 
0 0 0 
0 0 0 
0 0 0 
0 0 0 
0 0 0 
0 0 0 
0 0 0 
0 0 0 
0 0 0 
0 0 0 
0 0 0 
0 0 0 
0 0 0 
0 0 0 
0 0 0 
0 0 0 
0 0 0 
0 0 0 
0 0 0 
0 0 0 
0 0 0 
0 0 0 
0 0 0 
0 0 0 
0 0 0 
0 0 0 
0 0 0 
0 0 0 
0 0 0 
0 0 0 
0 0 0 
0 0 0 
0 0 0 
0 0 0 
0 0 0 
0 0 0 
0 0 0 
0 0 0 
0 0 0 
0 0 0 
0 0 0 
0 0 0 
0 0 0 
0 0 0 
0 0 0 
0 0 0 
0 0 0 
0 0 0 
0 0 0 
0 0 0 
0 0 0 
0 0 0 
0 0 0 
0 0 0 
0 0 0 
0 0 0 
0 0 0 
0 0 0 
0 0 0 
0 0 0 
0 0 0 
0 0 0 
0 0 0 
0 0 0 
0 0 0 
0 0 0 
0 0 0 
0 0 0 
0 0 0 
0 0 0 
0 0 0 
0 0 0 
0 0 0 
0 0 0 
0 0 0 
0 0 0 
0 0 0 
0 0 0 
0 0 0 
0 0 0 
0 0 0 
0 0 0 
0 0 0 
0 0 0 
0 0 0 
0 0 0 
0 0 0 
0 0 0 
0 0 0 
0 0 0 
0 0 0 
0 0 0 
0 0 0 
0 0 0 
0 0 0 
0 0 0 
0 0 0 
0 0 0 
0 0 0 
0 0 0 
0 0 0 
0 0 0 
0 0 0 
0 0 0 
0 0 0 
0 0 0 
0 0 0 
0 0 0 
0 0 0 
0 0 0 
0 0 0 
0 0 0 
0 0 0 
0 0 0 
0 0 0 
0 0 0 
0 0 0 
0 0 0 
0 0 0 
0 0 0 
0 0 0 
0 0 0 
0 0 0 
0 0 0 
0 0 0 
0 0 0 
0 0 0 
0 0 0 
0 0 0 
0 0 0 
0 0 0 
0 0 0 
0 0 0 
0 0 0 
0 0 0 
0 0 0 
0 0 0 
0 0 0 
0 0 0 
0 0 0 
0 0 0 
0 0 0 
0 0 0 
0 0 0 
0 0 0 
0 0 0 
0 0 0 
0 0 0 
0 0 0 
0 0 0 
0 0 0 
0 0 0 
0 0 0 
0 0 0 
0 0 0 
0 0 0 
0 0 0 
0 0 0 
0 0 0 
0 0 0 
0 0 0 
0 0 0 
0 0 0 
0 0 0 
0 0 0 
0 0 0 
0 0 0 
0 0 0 
0 0 0 
0 0 0 
0 0 0 
0 0 0 
0 0 0 
0 0 0 
0 0 0 
0 0 0 
0 0 0 
0 0 0 
0 0 0 
0 0 0 
0 0 0 
0 0 0 
0 0 0 
0 0 0 
0 0 0 
0 0 0 
0 0 0 
0 0 0 
0 0 0 
0 0 0 
0 0 0 
0 0 0 
0 0 0 
0 0 0 
0 0 0 
0 0 0 
0 0 0 
0 0 0 
0 0 0 
0 0 0 
0 0 0 
0 0 0 
0 0 0 
0 0 0 
0 0 0 
0 0 0 
0 0 0 
0 0 0 
0 0 0 
0 0 0 
0 0 0 
0 0 0 
0 0 0 
0 0 0 
0 0 0 
0 0 0 
0 0 0 
0 0 0 
0 0 0 
0 0 0 
0 0 0 
0 0 0 
0 0 0 
0 0 0 
0 0 0 
0 0 0 
0 0 0 
0 0 0 
0 0 0 
0 0 0 
0 0 0 
0 0 0 
0 0 0 
0 0 0 
0 0 0 
0 0 0 
0 0 0 
0 0 0 
0 0 0 
0 0 0 
0 0 0 
0 0 0 
0 0 0 
0 0 0 
0 0 0 
0 0 0 
0 0 0 
0 0 0 
0 0 0 
0 0 0 
0 0 0 
0 0 0 
0 0 0 
0 0 0 
0 0 0 
0 0 0 
0 0 0 
0 0 0 
0 0 0 
0 0 0 
0 0 0 
0 0 0 
0 0 0 
0 0 0 
0 0 0 
0 0 0 
0 0 0 
0 0 0 
0 0 0 
0 0 0 
0 0 0 
0 0 0 
0 0 0 
0 0 0 
0 0 0 
0 0 0 
0 0 0 
0 0 0 
0 0 0 
0 0 0 
0 0 0 
0 0 0 
0 0 0 
0 0 0 
0 0 0 
0 0 0 
0 0 0 
0 0 0 
0 0 0 
0 0 0 
0 0 0 
0 0 0 
0 0 0 
0 0 0 
0 0 0 
0 0 0 
0 0 0 
0 0 0 
0 0 0 
0 0 0 
0 0 0 
0 0 0 
0 0 0 
0 0 0 
0 0 0 
0 0 0 
0 0 0 
0 0 0 
0 0 0 
0 0 0 
0 0 0 
0 0 0 
0 0 0 
0 0 0 
0 0 0 
0 0 0 
0 0 0 
0 0 0 
0 0 0 
0 0 0 
0 0 0 
0 0 0 
0 0 0 
0 0 0 
0 0 0 
0 0 0 
0 0 0 
0 0 0 
0 0 0 
0 0 0 
0 0 0 
0 0 0 
0 0 0 
0 0 0 
0 0 0 
0 0 0 
0 0 0 
0 0 0 
0 0 0 
0 0 0 
0 0 0 
0 0 0 
0 0 0 
0 0 0 
0 0 0 
0 0 0 
0 0 0 
0 0 0 
0 0 0 
0 0 0 
0 0 0 
0 0 0 
0 0 0 
0 0 0 
0 0 0 
0 0 0 
0 0 0 
0 0 0 
0 0 0 
0 0 0 
0 0 0 
0 0 0 
0 0 0 
0 0 0 
0 0 0 
0 0 0 
0 0 0 
0 0 0 
0 0 0 
0 0 0 
0 0 0 
0 0 0 
0 0 0 
0 0 0 
0 0 0 
0 0 0 
0 0 0 
0 0 0 
0 0 0 
0 0 0 
0 0 0 
0 0 0 
0 0 0 
0 0 0 
0 0 0 
0 0 0 
0 0 0 
0 0 0 
0 0 0 
0 0 0 
0 0 0 
0 0 0 
0 0 0 
0 0 0 
0 0 0 
0 0 0 
0 0 0 
0 0 0 
0 0 0 
0 0 0 
0 0 0 
0 0 0 
0 0 0 
0 0 0 
0 0 0 
0 0 0 
0 0 0 
0 0 0 
0 0 0 
0 0 0 
0 0 0 
0 0 0 
0 0 0 
0 0 0 
0 0 0 
0 0 0 
0 0 0 
0 0 0 
0 0 0 
0 0 0 
0 0 0 
0 0 0 
0 0 0 
0 0 0 
0 0 0 
0 0 0 
0 0 0 
0 0 0 
0 0 0 
0 0 0 
0 0 0 
0 0 0 
0 0 0 
0 0 0 
0 0 0 
0 0 0 
0 0 0 
0 0 0 
0 0 0 
0 0 0 
0 0 0 
0 0 0 
0 0 0 
0 0 0 
0 0 0 
0 0 0 
0 0 0 
0 0 0 
0 0 0 
0 0 0 
0 0 0 
0 0 0 
0 0 0 
0 0 0 
0 0 0 
0 0 0 
0 0 0 
0 0 0 
0 0 0 
0 0 0 
0 0 0 
0 0 0 
0 0 0 
0 0 0 
0 0 0 
0 0 0 
0 0 0 
0 0 0 
0 0 0 
0 0 0 
SCALARS num_collisions int 1
LOOKUP_TABLE default
1 
1 
1 
1 
1 
1 
1 
1 
1 
1 
1 
1 
1 
1 
1 
1 
1 
1 
1 
1 
1 
1 
1 
1 
1 
1 
1 
1 
1 
1 
1 
1 
1 
1 
1 
1 
1 
1 
1 
1 
1 
1 
1 
1 
1 
1 
1 
1 
1 
1 
1 
1 
1 
1 
1 
1 
1 
1 
1 
1 
1 
1 
1 
1 
1 
1 
1 
1 
1 
1 
1 
1 
1 
1 
1 
1 
1 
1 
1 
1 
1 
1 
1 
1 
1 
1 
1 
1 
1 
1 
1 
1 
1 
1 
1 
1 
1 
1 
1 
1 
1 
1 