# vtk DataFile Version 2.0
Generated by NetDEM
ASCII 
DATASET POLYDATA
POINTS 858 double
-0.418815 -0.406958 -0.463763 
-0.429218 -0.4075 -0.392784 
-0.446187 -0.205255 -0.450018 
-0.449855 -0.250581 -0.360962 
-0.412517 -0.00611435 -0.464794 
-0.40931 -0.0178798 -0.385431 
-0.449173 0.113987 -0.45001 
-0.37199 0.0698525 -0.404247 
-0.449183 0.34973 -0.450054 
-0.357349 0.37391 -0.407215 
-0.449183 0.34973 -0.450054 
-0.450014 0.383375 -0.355908 
-0.449183 0.34973 -0.450054 
-0.441292 0.276067 -0.382918 
-0.307695 -0.21073 -0.450017 
-0.320529 -0.204332 -0.351061 
-0.307695 -0.21073 -0.450017 
-0.231711 -0.161614 -0.40743 
-0.195174 -0.00925005 -0.45004 
-0.129624 -0.0554955 -0.390375 
-0.195174 -0.00925005 -0.45004 
-0.240474 -0.00473016 -0.3516 
-0.253121 0.366393 -0.463177 
-0.357349 0.37391 -0.407215 
-0.253121 0.366393 -0.463177 
-0.230711 0.32659 -0.394435 
-0.0559273 -0.396488 -0.460789 
-0.085151 -0.388704 -0.395761 
-0.145211 -0.134232 -0.450016 
-0.129624 -0.0554955 -0.390375 
-0.0558769 -0.0871949 -0.45003 
0.0509645 -0.0922723 -0.449986 
-0.0558769 -0.0871949 -0.45003 
-0.00694558 -0.023127 -0.393026 
0.0361194 0.179032 -0.452326 
0.0264058 0.259583 -0.449929 
0.0361194 0.179032 -0.452326 
0.111619 0.137545 -0.3981 
-0.0309412 0.319064 -0.441422 
-0.111323 0.313643 -0.398649 
0.193175 -0.401354 -0.462851 
0.203941 -0.413733 -0.390086 
0.168813 -0.210201 -0.463112 
0.16559 -0.205391 -0.389844 
0.173077 -0.00766711 -0.462783 
0.174719 0.0133623 -0.385375 
0.160454 0.209372 -0.46505 
0.118883 0.301427 -0.425694 
0.30153 0.403772 -0.414243 
0.286814 0.374105 -0.319928 
0.30153 0.403772 -0.414243 
0.37115 0.438923 -0.465072 
0.30153 0.403772 -0.414243 
0.330995 0.308219 -0.412437 
0.30153 0.403772 -0.414243 
0.205542 0.384459 -0.394042 
0.450017 -0.40774 -0.450035 
0.394982 -0.450017 -0.378081 
0.430762 -0.303177 -0.450041 
0.43683 -0.356084 -0.365424 
0.380496 0.0909754 -0.450022 
0.322965 0.0638238 -0.372888 
0.37115 0.438923 -0.465072 
0.397106 0.450023 -0.369632 
-0.429218 -0.4075 -0.392784 
-0.434696 -0.440272 -0.326272 
-0.449855 -0.250581 -0.360962 
-0.425766 -0.298942 -0.276815 
-0.40931 -0.0178798 -0.385431 
-0.315654 -0.0230461 -0.359129 
-0.40931 -0.0178798 -0.385431 
-0.450813 -0.0305867 -0.316518 
-0.33392 -0.407406 -0.403703 
-0.264254 -0.438075 -0.362569 
-0.231711 -0.161614 -0.40743 
-0.177742 -0.171686 -0.323849 
-0.154239 -0.0986227 -0.202996 
-0.236064 -0.0632374 -0.157711 
-0.154239 -0.0986227 -0.202996 
-0.165781 -0.071717 -0.298599 
-0.146017 0.4025 -0.447095 
-0.144215 0.44225 -0.33482 
-0.146017 0.4025 -0.447095 
-0.111323 0.313643 -0.398649 
-0.085151 -0.388704 -0.395761 
-0.00250602 -0.338599 -0.345298 
-0.085151 -0.388704 -0.395761 
-0.159861 -0.376665 -0.333586 
0.316905 -0.238266 -0.105992 
0.298532 -0.16302 -0.172394 
0.316905 -0.238266 -0.105992 
0.356456 -0.212593 -0.0178264 
-0.0318089 -0.0147087 -0.302213 
-0.00694558 -0.023127 -0.393026 
-0.0318089 -0.0147087 -0.302213 
0.00365952 -0.0122912 -0.208748 
0.0264058 0.259583 -0.449929 
-0.0369658 0.222913 -0.385253 
0.118883 0.301427 -0.425694 
0.0660803 0.396821 -0.408607 
0.203941 -0.413733 -0.390086 
0.202733 -0.435802 -0.31904 
0.16559 -0.205391 -0.389844 
0.214235 -0.19876 -0.306644 
0.16559 -0.205391 -0.389844 
0.158655 -0.312104 -0.382401 
0.174719 0.0133623 -0.385375 
0.162125 0.0557579 -0.328847 
0.195949 0.112478 -0.456239 
0.273497 0.0663078 -0.443857 
0.195949 0.112478 -0.456239 
0.26103 0.176327 -0.444228 
0.195949 0.112478 -0.456239 
0.111619 0.137545 -0.3981 
0.286814 0.374105 -0.319928 
0.249334 0.450026 -0.266823 
0.394982 -0.450017 -0.378081 
0.449886 -0.44678 -0.294566 
0.394982 -0.450017 -0.378081 
0.343539 -0.41139 -0.301559 
0.43683 -0.356084 -0.365424 
0.450015 -0.310914 -0.277213 
0.43683 -0.356084 -0.365424 
0.355585 -0.314709 -0.324359 
0.450028 0.139411 -0.396892 
0.449992 0.0544412 -0.344177 
0.424997 0.339882 -0.45636 
0.43767 0.255038 -0.460025 
0.424997 0.339882 -0.45636 
0.431405 0.367668 -0.376017 
0.424997 0.339882 -0.45636 
0.330995 0.308219 -0.412437 
-0.434696 -0.440272 -0.326272 
-0.434457 -0.452826 -0.243869 
-0.320529 -0.204332 -0.351061 
-0.32006 -0.140495 -0.274099 
-0.291115 0.26676 -0.450014 
-0.330359 0.232983 -0.36447 
-0.441292 0.276067 -0.382918 
-0.422424 0.260302 -0.28603 
-0.441292 0.276067 -0.382918 
-0.423535 0.242291 -0.463912 
-0.181288 -0.375157 -0.451258 
-0.158629 -0.448089 -0.391159 
-0.236064 -0.0632374 -0.157711 
-0.273422 -0.110862 -0.0781127 
0.0437094 -0.43823 -0.449747 
0.0951804 -0.452409 -0.355262 
0.0437094 -0.43823 -0.449747 
0.0101622 -0.43422 -0.354517 
0.208215 -0.284512 -0.104035 
0.135979 -0.217593 -0.121325 
0.208215 -0.284512 -0.104035 
0.297237 -0.326881 -0.144248 
0.208215 -0.284512 -0.104035 
0.136557 -0.330529 -0.0475836 
0.211109 0.0682924 -0.189675 
0.184982 0.0458066 -0.103684 
0.211109 0.0682924 -0.189675 
0.203284 0.139632 -0.25522 
-0.0369658 0.222913 -0.385253 
0.00755233 0.293646 -0.337558 
0.202733 -0.435802 -0.31904 
0.178335 -0.425641 -0.219896 
0.202733 -0.435802 -0.31904 
0.263077 -0.445452 -0.239874 
0.202733 -0.435802 -0.31904 
0.0951804 -0.452409 -0.355262 
0.0509645 -0.0922723 -0.449986 
0.134294 -0.0992064 -0.39829 
0.0509645 -0.0922723 -0.449986 
0.0179129 -0.119628 -0.345681 
0.162125 0.0557579 -0.328847 
0.125967 0.0631817 -0.266033 
0.273497 0.0663078 -0.443857 
0.322965 0.0638238 -0.372888 
0.111619 0.137545 -0.3981 
0.0500983 0.118721 -0.326068 
0.378805 -0.217244 -0.450062 
0.450007 -0.207923 -0.380491 
0.378805 -0.217244 -0.450062 
0.336461 -0.17661 -0.369137 
0.381513 -0.108036 -0.450039 
0.347994 -0.0762801 -0.361366 
0.381513 -0.108036 -0.450039 
0.450003 -0.106287 -0.377204 
0.450012 0.234101 -0.364715 
0.399188 0.29917 -0.3083 
0.450012 0.234101 -0.364715 
0.448761 0.219196 -0.265866 
0.450012 0.234101 -0.364715 
0.43767 0.255038 -0.460025 
-0.434457 -0.452826 -0.243869 
-0.390193 -0.438218 -0.168473 
-0.240474 -0.00473016 -0.3516 
-0.19327 0.0777026 -0.337768 
-0.274871 0.0935407 -0.402635 
-0.37199 0.0698525 -0.404247 
-0.359556 0.141852 -0.335449 
-0.330359 0.232983 -0.36447 
-0.158629 -0.448089 -0.391159 
-0.159861 -0.376665 -0.333586 
-0.129624 -0.0554955 -0.390375 
-0.165781 -0.071717 -0.298599 
-0.243773 0.0472302 -0.213792 
-0.286972 0.085707 -0.295356 
-0.0556779 0.126476 -0.442633 
-0.135588 0.146015 -0.394319 
-0.0556779 0.126476 -0.442633 
0.0205618 0.0475158 -0.450073 
-0.357349 0.37391 -0.407215 
-0.313578 0.438321 -0.346263 
0.0951804 -0.452409 -0.355262 
0.0826672 -0.421079 -0.268464 
0.0205618 0.0475158 -0.450073 
0.0319877 0.0431306 -0.354125 
0.0660803 0.396821 -0.408607 
-0.0023062 0.43793 -0.464853 
0.0660803 0.396821 -0.408607 
-0.0062761 0.413853 -0.368572 
0.263077 -0.445452 -0.239874 
0.268767 -0.430377 -0.123061 
0.158655 -0.312104 -0.382401 
0.259313 -0.321864 -0.35507 
0.158655 -0.312104 -0.382401 
0.103628 -0.287327 -0.290403 
0.125967 0.0631817 -0.266033 
0.0430583 0.071335 -0.253141 
0.125967 0.0631817 -0.266033 
0.11154 -0.0213608 -0.202153 
0.26103 0.176327 -0.444228 
0.331877 0.209233 -0.398381 
0.26103 0.176327 -0.444228 
0.237748 0.233038 -0.377668 
0.450003 -0.106287 -0.377204 
0.437477 -0.0371506 -0.306053 
0.450003 -0.106287 -0.377204 
0.450004 -0.144458 -0.284778 
0.330995 0.308219 -0.412437 
0.331877 0.209233 -0.398381 
0.431405 0.367668 -0.376017 
0.399188 0.29917 -0.3083 
0.431405 0.367668 -0.376017 
0.438493 0.399296 -0.29466 
-0.390193 -0.438218 -0.168473 
-0.370255 -0.363682 -0.113686 
-0.390193 -0.438218 -0.168473 
-0.461627 -0.452379 -0.120842 
-0.296061 -0.0415254 -0.267749 
-0.353913 0.0113811 -0.228588 
-0.296061 -0.0415254 -0.267749 
-0.32006 -0.140495 -0.274099 
-0.450014 0.383375 -0.355908 
-0.450011 0.353006 -0.260642 
0.356456 -0.212593 -0.0178264 
0.338901 -0.269908 0.0621924 
0.0179129 -0.119628 -0.345681 
0.0137255 -0.104324 -0.246951 
0.0319877 0.0431306 -0.354125 
0.0500983 0.118721 -0.326068 
-0.0023062 0.43793 -0.464853 
-0.0062761 0.413853 -0.368572 
0.302626 -0.387022 -0.20623 
0.297237 -0.326881 -0.144248 
0.302626 -0.387022 -0.20623 
0.343539 -0.41139 -0.301559 
0.0430583 0.071335 -0.253141 
0.0500983 0.118721 -0.326068 
0.0430583 0.071335 -0.253141 
0.00310334 0.112544 -0.183742 
0.237748 0.233038 -0.377668 
0.199889 0.309036 -0.334719 
0.237748 0.233038 -0.377668 
0.227525 0.183297 -0.317719 
0.349166 0.450007 -0.26129 
0.249334 0.450026 -0.266823 
0.349166 0.450007 -0.26129 
0.381951 0.42698 -0.185075 
-0.461627 -0.452379 -0.120842 
-0.443791 -0.457118 0.000620653 
-0.32006 -0.140495 -0.274099 
-0.340888 -0.218207 -0.21472 
-0.313578 0.438321 -0.346263 
-0.235049 0.439809 -0.284379 
-0.159861 -0.376665 -0.333586 
-0.219273 -0.353192 -0.23309 
-0.135588 0.146015 -0.394319 
-0.19327 0.0777026 -0.337768 
-0.230711 0.32659 -0.394435 
-0.167821 0.354006 -0.323174 
-0.230711 0.32659 -0.394435 
-0.207947 0.2745 -0.326807 
0.297554 -0.321578 -0.0541701 
0.360649 -0.396242 -0.0735645 
0.450048 0.0514236 -0.152866 
0.447511 0.0820093 -0.248042 
0.450048 0.0514236 -0.152866 
0.373217 0.0137492 -0.101218 
0.0500983 0.118721 -0.326068 
0.0231574 0.193822 -0.279398 
-0.111323 0.313643 -0.398649 
-0.107798 0.276377 -0.316275 
0.238717 -0.142355 -0.387763 
0.214235 -0.19876 -0.306644 
0.238717 -0.142355 -0.387763 
0.336461 -0.17661 -0.369137 
0.238717 -0.142355 -0.387763 
0.134294 -0.0992064 -0.39829 
0.11154 -0.0213608 -0.202153 
0.142334 -0.0306206 -0.113376 
0.199889 0.309036 -0.334719 
0.205542 0.384459 -0.394042 
0.205542 0.384459 -0.394042 
0.14474 0.45001 -0.349237 
0.449992 0.0544412 -0.344177 
0.437477 -0.0371506 -0.306053 
0.438493 0.399296 -0.29466 
0.445906 0.374134 -0.204978 
-0.443791 -0.457118 0.000620653 
-0.426458 -0.392864 0.0925112 
-0.424517 -0.127196 -0.396683 
-0.409674 -0.176444 -0.301087 
-0.207947 0.2745 -0.326807 
-0.282907 0.316888 -0.27531 
-0.207947 0.2745 -0.326807 
-0.107798 0.276377 -0.316275 
-0.207947 0.2745 -0.326807 
-0.220688 0.214383 -0.247932 
0.127925 -0.450021 -0.080794 
0.0383272 -0.405516 -0.0618632 
[...]
POINT_DATA 858
SCALARS id int 1
LOOKUP_TABLE default
0
25
1
26
2
27
3
103
4
84
4
104
4
54
6
51
6
31
7
81
7
77
9
84
9
134
10
35
11
81
12
66
12
108
13
38
13
69
14
139
15
40
16
41
17
42
18
39
19
44
19
24
19
98
19
144
20
45
21
46
23
172
24
124
25
50
26
226
27
52
27
127
30
105
31
76
32
57
32
162
34
184
34
139
35
160
35
130
36
192
36
111
37
108
37
312
38
63
39
89
40
65
41
216
41
91
42
67
43
68
43
93
43
69
44
194
45
145
45
120
46
195
46
95
48
148
49
74
49
99
49
98
50
75
51
126
53
154
54
179
54
109
55
80
57
356
60
85
60
185
61
161
61
240
61
340
62
417
62
193
63
164
65
140
65
90
65
85
66
166
66
112
67
92
68
172
69
138
71
121
71
146
72
171
72
96
73
173
73
273
73
74
75
100
77
203
78
103
79
154
80
130
81
162
82
307
83
133
83
88
84
129
85
165
88
113
89
114
89
189
90
215
91
116
91
256
92
117
92
142
93
123
93
118
96
222
96
196
98
123
99
173
99
149
100
101
100
125
102
177
102
126
104
329
111
346
112
186
113
138
114
189
115
240
115
120
117
138
117
238
118
143
118
168
119
194
119
199
125
150
126
401
129
282
130
205
133
203
134
209
134
153
136
265
137
272
137
372
138
163
139
158
141
216
141
146
141
166
142
292
143
144
144
169
148
222
149
174
150
350
152
311
153
283
153
158
153
253
156
285
157
309
157
328
158
183
160
185
160
210
160
206
161
341
161
360
165
190
166
191
167
322
168
193
168
218
169
214
170
271
170
221
171
297
172
197
174
224
174
298
174
199
175
300
177
301
179
201
179
329
179
279
182
334
182
309
183
213
184
259
186
336
188
288
189
263
189
239
192
217
192
271
193
268
195
221
195
220
196
271
197
272
197
297
197
223
199
318
201
354
202
253
202
279
204
254
205
225
206
207
209
234
210
235
212
238
212
287
216
341
217
266
217
242
217
396
218
243
219
318
220
245
221
296
224
249
225
276
225
300
227
228
227
328
229
304
229
429
231
337
233
388
233
253
234
288
234
258
235
260
237
386
238
337
239
264
242
372
243
394
243
294
244
444
244
394
244
319
245
265
246
371
246
296
248
373
248
348
249
274
257
352
257
258
259
284
259
333
260
285
261
320
261
445
262
289
262
344
264
289
265
320
266
271
267
322
268
293
271
297
273
348
273
298
274
324
275
400
276
305
278
301
285
340
285
310
287
338
288
313
289
314
292
317
293
343
298
398
300
381
301
377
308
332
309
332
309
404
310
335
313
338
314
339
316
422
317
437
318
323
323
348
324
424
327
352
328
329
330
335
330
430
331
411
334
339
337
432
339
364
340
465
343
362
346
395
346
446
350
400
352
433
360
436
361
405
364
469
364
389
369
464
371
420
372
392
373
422
377
402
380
381
392
410
393
468
396
465
397
398
397
423
399
448
400
425
405
461
407
427
410
417
424
449
427
457
429
454
439
489
440
495
444
469
461
486
127
0
329
0
304
0
104
0
450
0
278
0
354
0
261
1
137
1
324
1
73
1
20
1
121
1
96
1
296
1
174
1
195
1
491
1
196
1
48
1
122
1
245
2
320
2
75
2
80
2
175
2
45
2
125
2
156
2
304
3
439
3
194
3
204
3
29
3
94
3
169
3
239
3
274
3
119
3
319
3
344
3
53
4
17
4
122
4
49
4
47
4
180
4
0
4
74
4
88
4
10
4
64
4
114
4
55
4
16
4
24
4
2
4
20
4
72
4
109
4
12
4
8
4
5
4
15
4
38
4
66
4
18
4
71
4
9
4
60
4
21
4
23
4
94
4
68
4
33
4
11
4
29
4
14
4
3
4
147
4
13
4
43
4
1
4
34
4
58
4
7
4
4
4
6
4
110
4
22
4
187
4
CELL_DATA 429
VECTORS force double
6.81534 50.1235 -261.534 
0.267014 -0.421525 0.103423 
33.0793 -87.1509 603.65 
4.65048 6.59538 -28.3814 
-19.6986 -4.83541 -12.7781 
15.9938 -7.51478 -40.756 
-6.07604 18.0396 -41.296 
4.92148 18.0716 -19.763 
-2.00629 -5.82024 4.59369 
404.998 -75.5015 -800.679 
558.371 -217.993 -153.607 
5.56443 -3.27943 -9.98473 
-5.68812 1.77293 -39.4193 
65.499 -30.1929 -276.296 
313.066 -100.192 -487.836 
-50.2794 -10.9346 -114.705 
-20.4273 -34.7087 -70.9263 
156.628 -64.7953 -573.165 
36.5965 82.1085 -326.455 
-93.3322 76.0762 -41.4511 
10.8233 -0.0382134 -57.2594 
-13.5981 16.4699 -109.963 
21.5547 -20.4667 -78.1465 
5.31197 -18.7803 -14.6802 
-274.35 730.11 689.749 
-277.926 -169.901 516.413 
-308.294 342.268 214.261 
-298.519 613.119 624.29 
35.4938 16.0647 -55.6915 
31.0485 -140.91 -560.564 
475.992 -88.3095 710.973 
5.2262 69.3551 -137.272 
0.935722 -13.6175 163.033 
0.511131 -1.33185 3.04785 
49.75 77.0675 -769.877 
315.772 -26.0343 -314.697 
-11.8175 1.42034 -8.58181 
0.85428 0.517039 0.299855 
-18.2205 -34.4711 128.192 
-143.36 -7.85413 263.748 
-342.183 -271.341 104.854 
-357.188 -228.759 159.296 
-5.12983 -7.97139 -84.0056 
75.5724 -16.7627 -150.832 
-10.1585 -29.5282 57.5579 
-7.70417 8.4037 -37.7679 
-1.12772 1.63586 4.0877 
0.0571999 0.467498 1.26758 
-17.8674 312.837 790.683 
12.5651 -17.6427 -1.10209 
12.8772 8.16437 -45.7248 
-2.02434 -1.43446 -75.4918 
-0.945011 16.5486 -26.0343 
25.0813 -13.1387 -63.9678 
-433.219 56.1935 -776.852 
-162.513 -188.182 -604.64 
91.1632 2.26032 -200.054 
-322.229 -859.812 -1097.4 
3.45602 -2.01908 -6.4977 
25.6205 -17.3245 -49.4377 
333.246 -239.606 510.657 
158.668 -77.5397 481.919 
-34.3713 -17.2588 -3.52866 
-160.468 200.897 173.247 
96.4622 251.756 -183.976 
-8.52488 404.042 109.34 
40.9106 41.6955 -639.984 
-3.17168 -118.21 -52.5086 
3.25091 3.37022 -13.0869 
-9.23635 13.0542 -80.0561 
3.45041 4.5889 52.7808 
0.591764 -4.6161 1.41801 
50.8184 -17.6581 -37.4213 
-2.22497 -4.08962 -32.771 
5.38304 -2.12356 -12.5884 
25.4958 -25.0306 16.6299 
-20.2492 23.5577 11.6852 
-12.9679 2.52979 -10.0871 
-0.631467 17.4484 -30.4788 
-16.0398 -65.2414 86.2112 
52.0753 -32.3388 -493.417 
0.590046 1.81048 -14.9847 
-2.62254 2.47823 -4.58679 
11.8101 4.45104 -11.3731 
-0.48282 -7.97104 -73.3409 
72.2597 0.186496 63.4144 
28.7965 -4.76221 -52.2823 
657.71 -62.4828 441.259 
75.2867 2.85134 258.58 
54.8904 -25.7018 -39.1759 
125.923 -36.1204 -53.3826 
17.5864 -27.2374 -116.522 
-3.8973 2.33041 -37.9127 
174.382 444.628 -342.619 
295.813 473.263 -459.528 
-25.1773 -43.1596 -290.062 
-281.857 28.6215 748.885 
-246.386 58.2841 -30.8734 
96.7767 43.7354 -56.1213 
-1.53721 -3.08241 1.88468 
-42.791 -73.0019 -58.796 
153.449 20.3995 529.563 
4.40986 -1.47975 16.1492 
-25.7776 19.3049 15.4736 
33.437 153.33 211.288 
-11.1478 -7.70415 -11.814 
6.67664 -0.116049 -25.1269 
-132.59 -51.3885 -187.674 
-124.276 -28.7553 72.0921 
53.5603 -63.1062 42.8782 
-0.44142 -0.109148 -1.44637 
-3.36382 4.67035 -3.52062 
3.41084 3.51264 -7.04225 
17.4381 -10.2741 -11.0081 
1.46475 8.32742 -26.0117 
95.2587 -142.595 -3.84607 
269.304 126.306 475.986 
5.67889 4.80211 -6.31393 
1.18823 21.7278 -14.2045 
-102.791 -197.181 -54.5785 
-60.9923 381.942 181.517 
4.08367 196.556 -31.5176 
-79.9771 -59.3355 -292.738 
9.71659 -46.5715 -604.888 
17.3833 -49.8368 -869.495 
-54.8847 -5.14856 -500.191 
-12.8261 0.718688 -24.3207 
-2.13459 8.9599 -38.5058 
0.450851 -1.64216 -27.6349 
76.2149 39.5205 133.846 
209.7 -38.2916 -31.0651 
17.2518 -19.1199 -22.7887 
-16.2625 12.5085 39.0226 
-10.836 10.6188 140.812 
12.0952 -8.70932 -13.3194 
-53.2621 -495.331 -98.7721 
-4.98037 -204.897 -564.932 
-112.941 -1078.01 -679.817 
-231.973 -130.966 -131.977 
-177.244 48.4105 200.524 
12.4838 -64.4515 -20.1177 
-4.83872 -3.56092 -6.57705 
48.0216 -16.2909 -99.1954 
-14.8279 -32.3824 -22.4432 
-11.2799 -17.9295 -26.7507 
4.86867 28.6397 -23.0994 
-5.73348 7.7693 3.18459 
44.1045 -14.8384 83.361 
81.7762 26.8308 -46.9217 
-26.1139 -44.4342 -126.565 
9.37732 82.4283 -21.1765 
80.0076 -13.378 -79.1491 
45.9947 -14.2566 -56.393 
51.6558 -4.75608 78.8173 
1.86962 7.63055 -28.709 
-141.404 308.227 268.56 
310.482 -127.806 -147.351 
-5.72258 21.6628 -6.23094 
10.485 2.00267 -19.2255 
-25.007 41.5585 -100.427 
2.92553 -1.79105 0.383041 
4.74101 -2.79425 -1.30695 
-6.10884 12.558 2.04906 
4.09016 9.99232 -22.1232 
25.1356 -36.8147 -1.98287 
-31.9565 -8.25129 -28.0744 
39.0029 2.736 33.4051 
0.372 8.21355 -11.1397 
-2.87756 -1.07441 0.550103 
2.4796 -0.525878 -73.8328 
-1.21868 -5.01806 -7.6053 
-23.5085 -12.2692 57.3829 
3.1455 2.803 2.7106 
-0.124376 -0.382346 -10.2612 
22.1469 0.958762 21.9402 
-0.0211207 0.473063 -2.18731 
29.405 -49.5491 120.409 
4.59329 -33.3025 277.497 
1.9261 6.65933 -5.36876 
39.4344 -163.39 71.1416 
7.17269 -56.6146 -3.98747 
14.8638 43.5026 146.702 
-90.4796 129.759 -815.823 
4.05655 -18.2688 -26.0782 
24.729 -8.34007 -0.165063 
-21.3544 -50.9394 -1.1979 
-23.539 -45.4938 40.7963 
-88.8662 188.16 216.942 
3.3454 11.0818 -40.6635 
-3.67607 -2.63897 -10.3893 
-10.2826 4.54748 -14.7956 
-28.2443 -1.63425 -4.96279 
25.2489 6.65903 10.3937 
-1.51467 10.5373 -7.742 
-28.236 -6.847 -95.0088 
-0.900585 -0.676808 -8.33534 
-1.08648 0.448811 2.21368 
-15.0613 -6.36768 63.2915 
74.4847 -20.1054 -49.2034 
7.49114 21.4734 -22.488 
35.3108 174.564 65.0315 
10.1372 21.9079 -72.7823 
23.3922 -138.206 -16.4519 
-53.1752 0.144652 -333.849 
129.138 -149.441 -43.5275 
25.7515 -23.9233 301.821 
40.1322 -28.449 422.599 
16.8603 -26.2947 -15.6506 
31.5984 36.0055 -17.5946 
8.96356 8.70474 -24.5827 
-8.45184 -1.05926 1.88482 
10.742 -3.27008 5.93446 
1.2288 3.92879 -3.20477 
42.6068 -6.56822 -70.4977 
-1.08366 -3.00261 -5.46706 
0.0590401 14.0105 -28.6242 
-5.22532 3.60316 -62.1245 
-3.14205 6.6096 10.5002 
-1.67707 -2.73002 -8.10569 
29.0071 0.686071 -83.5952 
-10.27 13.5227 65.5797 
-24.698 -45.8441 -4.31226 
42.7769 75.1508 -52.4435 
58.9459 -46.7766 -107.054 
2.94846 0.900293 1.80494 
-4.49617 3.62915 -21.8137 
4.03036 9.40403 -5.01153 
5.93742 -3.09616 -24.2897 
7.37536 47.3993 -28.1815 
22.5115 15.0125 -61.2357 
-1.77786 0.541302 -3.72216 
2.63816 -0.938442 6.74562 
39.9867 -53.7583 93.8797 
-22.6333 35.9945 -70.2094 
-0.79267 2.60005 4.4859 
-1.63894 1.94166 -2.56991 
5.19238 -8.52346 7.62917 
-18.6688 0.207497 -10.6514 
25.7371 14.1481 -23.1384 
-19.4129 1.36318 -48.9533 
-0.563689 -2.93454 5.49893 
3.18391 -0.945756 -7.00783 
-15.248 12.7143 12.5301 
-23.2165 -32.9811 14.4172 
-1.85538 5.15985 -11.8743 
-9.72096 16.1405 9.67653 
15.7501 -2.5674 -30.774 
3.17767 12.1427 -1.51106 
-15.1548 9.91152 27.6197 
6.16388 -12.0458 -30.0387 
0.568131 1.99311 -5.27723 
2.54206 2.8531 17.6478 
60.8763 -19.8646 -6.40021 
-70.2049 -229.563 240.673 
-1.24368 -4.82872 -11.5775 
21.2604 12.4105 -17.3843 
-34.6893 -16.3216 22.9641 
3.74949 -2.46344 -27.5344 
-9.63363 6.80311 -12.0305 
-27.2561 13.3658 -40.0244 
18.0272 7.48018 13.0646 
8.85706 4.11897 -10.321 
-0.865754 -0.227952 0.0244879 
-6.49706 -0.159703 0.517589 
-2.42093 9.95689 -30.233 
-6.49046 -5.52149 -18.1405 
149.112 132.892 -43.6711 
-0.90234 0.360323 2.35028 
-8.65414 4.70626 -13.6949 
-181.734 -28.0278 206.425 
40.082 -152.783 460.36 
93.8955 3.37969 76.4382 
-2.11725 9.90258 -22.6056 
-3.50082 0.178085 -1.7552 
48.4672 289.916 -196.628 
-111.379 46.9497 61.5384 
-23.511 -27.1819 -16.843 
13.176 8.82101 -20.4857 
-2.51082 0.542691 -3.8555 
-8.22213 2.14246 -8.32027 
1.11733 5.55563 -25.3571 
5.49146 -2.00353 -20.7803 
-4.19798 1.97012 -7.03403 
1.09051 17.7197 -49.1279 
1.66926 0.480333 -28.4249 
56.4199 -1.93232 -87.1605 
1.48695 -1.30013 -1.16042 
-6.09917 1.44279 -3.86934 
0.823125 0.00842138 -4.80654 
16.9807 0.269341 -22.96 
0.707235 0.787957 -4.54645 
5.19379 -1.81964 -30.6995 
0.0738031 -5.80296 6.28303 
3.95377 -3.66353 -8.93158 
-11.4359 44.1687 41.5949 
-12.3496 -140.65 198.876 
4.20191 6.66064 -14.8612 
-2.46513 -5.08473 0.572798 
45.8394 0.65491 48.4314 
-14.6468 -1.42554 10.6583 
-0.86128 1.46712 -2.45016 
-0.0533805 0.0419011 0.433216 
-16.7322 -3.94519 -6.02022 
0.135108 1.13495 -1.38505 
-16.5093 -6.41985 -22.5054 
-44.2016 -35.177 -7.5487 
-1.53327 0.28704 -2.41731 
1.36477 7.69155 -8.82801 
-1.19048 -2.68818 -14.3249 
-0.0417034 16.205 -17.1035 
2.04688 0.686132 -1.18123 
-0.899223 12.1699 32.0099 
9.6827 11.0209 4.22878 
-22.8128 -3.54186 -0.245489 
2.99533 -0.247032 -6.24649 
-0.815691 0.767505 -0.639423 
0.0638951 1.29235 -1.22372 
30.1012 1.2841 -22.3127 
-10.47 18.5711 -45.1277 
0.022599 1.5166 -8.35629 
1.91484 3.03647 11.8878 
7.24906 -1.28055 -2.58247 
0.0837828 -0.37615 0.254922 
43.8519 64.1165 -24.1343 
-1.50353 -13.9714 32.5144 
-1.86405 4.30921 -15.6406 
0.067073 0.0877132 -0.0437803 
-4.1131 3.08295 -18.0323 
19.6596 -2.86383 35.5823 
-0.533818 2.03881 -3.72547 
2.75885 -9.15854 13.6712 
1.42519 1.32398 -4.17195 
-0.0410144 -0.0959134 -3.14114 
3.6467 4.80034 -30.1076 
-33.9919 74.3069 -67.7981 
-0.28888 0.224738 0.752378 
19.659 -2.10492 -20.2674 
27.0724 -45.5982 70.477 
-65.9552 -35.9737 127.117 
28.171 -1.18539 26.795 
30.5685 -12.1943 43.4511 
29.2303 -8.84802 -2.94077 
1.42621 -0.205293 4.09287 
-14.7075 23.762 4.14708 
9.25828 4.62692 -9.22188 
-29.8581 -10.5625 8.48927 
-90.1416 -12.9439 7.38101 
-7.73702 0.431932 6.34948 
114.758 157.352 -360.58 
-34.0745 -6.0678 -3.3797 
-32.334 -2.93805 -12.828 
-2.92996 0.183113 6.49618 
-12.5295 -12.0847 4.79345 
-7.66719 2.7686 14.1282 
-173.33 -50.6187 -263.915 
84.1613 -24.5124 10.3364 
17.0881 5.24957 9.76447 
-81.488 -50.3282 22.4945 
-1.69389e-05 2.76528e-11 -1.73245e-05 
16.0488 63.3674 5.53166 
3.51088 1.84432 8.58546 
-29.6385 36.1347 289.623 
3.21089 -9.83777 4.66657 
5.75953 35.0538 7.62285 
-1.95588 35.0159 9.98561 
-20.3585 33.607 160.675 
-26.5676 41.7461 2.8649 
10.9299 -46.464 55.7724 
38.537 -171.739 105.119 
-469.833 592.831 342.885 
-1.75629 -3.82069 8.94649 
7.27927e-11 -6.25277e-05 -6.39512e-05 
-9.25967e-05 -1.49359 -1.52004 
-0.23089 -12.6891 2.88381 
-62.506 8.0967 34.955 
1.10287 -15.0352 24.2213 
-492.266 -455.797 -182.565 
-15.4965 -70.5145 -12.1878 
3.51295 -2.52619 -4.03855 
-2.61924 -2.11204 26.8625 
-22.2006 20.8481 91.2427 
1.71105e-05 5.97718e-11 13.6118 
-128.844 -64.5494 71.0644 
-9.16813e-15 1.09834e-14 13.6117 
-0.237542 3.02343 12.554 
-11.4083 -17.6064 106.613 
-4.95285 -49.5784 176.705 
19.8754 -110.757 -68.6055 
-62.6559 36.2194 290.149 
-25.0214 84.4136 142.44 
52.937 -26.4717 83.3148 
-1.60327 -0.665788 4.53908 
15.4917 -20.7683 128.633 
107.946 100.955 -153.033 
97.8888 -84.8103 408.1 
-1.5977 -11.2128 72.0916 
-3.68396 7.03537 51.827 
4.22659 4.00121 66.1517 
-18.4029 6.22927 10.0161 
0.657358 1.93062 12.8592 
0.445349 0.830858 14.5475 
-2.52106 -2.56523 71.1369 
-169.25 -99.7597 622.597 
-66.587 -12.3487 54.1002 
-5.74857 15.1022 28.0923 
-6.238 13.9495 126.396 
-3.97256 -4.92253 56.6486 
-1.5607 5.95149 60.427 
-9.97039 88.1433 -101.037 
-156.242 -79.4578 298.167 
-0.00020817 1.50777 15.1169 
31.3864 68.2054 306.102 
1.52721 2.0671 12.5343 
-6.01949 -149.449 -139.832 
1.58152e-10 6.31611e-05 13.6118 
-24.1334 14.6953 -26.6867 
4.03272 -3.52441 21.9468 
6.32436e-15 1.46996e-14 13.6117 
-57.147 -110.338 -181.802 
-244.81 -25.4802 -319.48 
0.139623 -0.0518308 11.5251 
102.385 68.4133 457.453 
-1.0592 0.89378 14.0645 
-159.338 132.373 -242.083 
11.0542 -6.57426 108.714 
-2.78513 6.23438 33.3164 
0.716191 -1.46657 13.2847 
6.15808e-17 9.9978e-16 13.6117 
6.6035e-14 7.06743e-15 13.6117 
VECTORS moment double
0 0 0 
0 0 0 
0 0 0 
0 0 0 
0 0 0 
0 0 0 
0 0 0 
0 0 0 
0 0 0 
0 0 0 
0 0 0 
0 0 0 
0 0 0 
0 0 0 
0 0 0 
0 0 0 
0 0 0 
0 0 0 
0 0 0 
0 0 0 
0 0 0 
0 0 0 
0 0 0 
0 0 0 
0 0 0 
0 0 0 
0 0 0 
0 0 0 
0 0 0 
0 0 0 
0 0 0 
0 0 0 
0 0 0 
0 0 0 
0 0 0 
0 0 0 
0 0 0 
0 0 0 
0 0 0 
0 0 0 
0 0 0 
0 0 0 
0 0 0 
0 0 0 
0 0 0 
0 0 0 
0 0 0 
0 0 0 
0 0 0 
0 0 0 
0 0 0 
0 0 0 
0 0 0 
0 0 0 
0 0 0 
0 0 0 
0 0 0 
0 0 0 
0 0 0 
0 0 0 
0 0 0 
0 0 0 
0 0 0 
0 0 0 
0 0 0 
0 0 0 
0 0 0 
0 0 0 
0 0 0 
0 0 0 
0 0 0 
0 0 0 
0 0 0 
0 0 0 
0 0 0 
0 0 0 
0 0 0 
0 0 0 
0 0 0 
0 0 0 
0 0 0 
0 0 0 
0 0 0 
0 0 0 
0 0 0 
0 0 0 
0 0 0 
0 0 0 
0 0 0 
0 0 0 
0 0 0 
0 0 0 
0 0 0 
0 0 0 
0 0 0 
0 0 0 
0 0 0 
0 0 0 
0 0 0 
0 0 0 
0 0 0 
0 0 0 
0 0 0 
0 0 0 
0 0 0 
0 0 0 
0 0 0 
0 0 0 
0 0 0 
0 0 0 
0 0 0 
0 0 0 
0 0 0 
0 0 0 
0 0 0 
0 0 0 
0 0 0 
0 0 0 
0 0 0 
0 0 0 
0 0 0 
0 0 0 
0 0 0 
0 0 0 
0 0 0 
0 0 0 
0 0 0 
0 0 0 
0 0 0 
0 0 0 
0 0 0 
0 0 0 
0 0 0 
0 0 0 
0 0 0 
0 0 0 
0 0 0 
0 0 0 
0 0 0 
0 0 0 
0 0 0 
0 0 0 
0 0 0 
0 0 0 
0 0 0 
0 0 0 
0 0 0 
0 0 0 
0 0 0 
0 0 0 
0 0 0 
0 0 0 
0 0 0 
0 0 0 
0 0 0 
0 0 0 
0 0 0 
0 0 0 
0 0 0 
0 0 0 
0 0 0 
0 0 0 
0 0 0 
0 0 0 
0 0 0 
0 0 0 
0 0 0 
0 0 0 
0 0 0 
0 0 0 
0 0 0 
0 0 0 
0 0 0 
0 0 0 
0 0 0 
0 0 0 
0 0 0 
0 0 0 
0 0 0 
0 0 0 
0 0 0 
0 0 0 
0 0 0 
0 0 0 
0 0 0 
0 0 0 
0 0 0 
0 0 0 
0 0 0 
0 0 0 
0 0 0 
0 0 0 
0 0 0 
0 0 0 
0 0 0 
0 0 0 
0 0 0 
0 0 0 
0 0 0 
0 0 0 
0 0 0 
0 0 0 
0 0 0 
0 0 0 
0 0 0 
0 0 0 
0 0 0 
0 0 0 
0 0 0 
0 0 0 
0 0 0 
0 0 0 
0 0 0 
0 0 0 
0 0 0 
0 0 0 
0 0 0 
0 0 0 
0 0 0 
0 0 0 
0 0 0 
0 0 0 
0 0 0 
0 0 0 
0 0 0 
0 0 0 
0 0 0 
0 0 0 
0 0 0 
0 0 0 
0 0 0 
0 0 0 
0 0 0 
0 0 0 
0 0 0 
0 0 0 
0 0 0 
0 0 0 
0 0 0 
0 0 0 
0 0 0 
0 0 0 
0 0 0 
0 0 0 
0 0 0 
0 0 0 
0 0 0 
0 0 0 
0 0 0 
0 0 0 
0 0 0 
0 0 0 
0 0 0 
0 0 0 
0 0 0 
0 0 0 
0 0 0 
0 0 0 
0 0 0 
0 0 0 
0 0 0 
0 0 0 
0 0 0 
0 0 0 
0 0 0 
0 0 0 
0 0 0 
0 0 0 
0 0 0 
0 0 0 
0 0 0 
0 0 0 
0 0 0 
0 0 0 
0 0 0 
0 0 0 
0 0 0 
0 0 0 
0 0 0 
0 0 0 
0 0 0 
0 0 0 
0 0 0 
0 0 0 
0 0 0 
0 0 0 
0 0 0 
0 0 0 
0 0 0 
0 0 0 
0 0 0 
0 0 0 
0 0 0 
0 0 0 
0 0 0 
0 0 0 
0 0 0 
0 0 0 
0 0 0 
0 0 0 
0 0 0 
0 0 0 
0 0 0 
0 0 0 
0 0 0 
0 0 0 
0 0 0 
0 0 0 
0 0 0 
0 0 0 
0 0 0 
0 0 0 
0 0 0 
0 0 0 
0 0 0 
0 0 0 
0 0 0 
0 0 0 
0 0 0 
0 0 0 
0 0 0 
0 0 0 
0 0 0 
0 0 0 
0 0 0 
0 0 0 
0 0 0 
0 0 0 
0 0 0 
0 0 0 
0 0 0 
0 0 0 
0 0 0 
0 0 0 
0 0 0 
0 0 0 
0 0 0 
0 0 0 
0 0 0 
0 0 0 
0 0 0 
0 0 0 
0 0 0 
0 0 0 
0 0 0 
0 0 0 
0 0 0 
0 0 0 
0 0 0 
0 0 0 
0 0 0 
0 0 0 
0 0 0 
0 0 0 
0 0 0 
0 0 0 
0 0 0 
0 0 0 
0 0 0 
0 0 0 
0 0 0 
0 0 0 
0 0 0 
0 0 0 
0 0 0 
0 0 0 
0 0 0 
0 0 0 
0 0 0 
0 0 0 
0 0 0 
0 0 0 
0 0 0 
0 0 0 
0 0 0 
0 0 0 
0 0 0 
0 0 0 
0 0 0 
0 0 0 
0 0 0 
0 0 0 
0 0 0 
0 0 0 
0 0 0 
0 0 0 
0 0 0 
0 0 0 
0 0 0 
0 0 0 
0 0 0 
0 0 0 
0 0 0 
0 0 0 
0 0 0 
0 0 0 
0 0 0 
0 0 0 
0 0 0 
0 0 0 
0 0 0 
0 0 0 
0 0 0 
0 0 0 
0 0 0 
0 0 0 
0 0 0 
0 0 0 
0 0 0 
0 0 0 
0 0 0 
0 0 0 
0 0 0 
0 0 0 
0 0 0 
0 0 0 
0 0 0 
0 0 0 
0 0 0 
0 0 0 
0 0 0 
0 0 0 
0 0 0 
0 0 0 
0 0 0 
0 0 0 
0 0 0 
0 0 0 
0 0 0 
SCALARS num_collisions int 1
LOOKUP_TABLE default
1 
1 
1 
1 
1 
1 
1 
1 
1 
1 
1 
1 
1 
1 
1 
1 
1 
1 
1 
1 
1 
1 
1 
1 
1 
1 
1 
1 
1 
1 
1 
1 
1 
1 
1 
1 
1 
1 
1 
1 
1 
1 
1 
1 
1 
1 
1 
1 
1 
1 
1 
1 
1 
1 
1 
1 
1 
1 
1 
1 
1 
1 
1 
1 
1 
1 
1 
1 
1 
1 
1 
1 
1 
1 
1 
1 
1 
1 
1 
1 
1 
1 
1 
1 
1 
1 
1 
1 
1 
1 
1 
1 
1 
1 
1 
1 
1 
1 
1 
1 
1 
1 
1 
1 
1 
1 
1 
1 
1 
1 
1 
1 
1 
1 
1 
1 
1 
1 
1 
1 
1 
1 
1 
1 
1 
1 
1 
1 
1 
1 
1 
1 
1 
1 
1 
1 
1 
1 
1 
1 
1 
1 
1 
1 
1 
1 
1 
1 
1 
1 
1 
1 
1 
1 
1 
1 
1 
1 
1 
1 
1 
1 
1 
1 
1 
1 
1 
1 
1 
1 
1 
1 
1 
1 
1 
1 
1 
1 
1 
1 
1 
1 
1 
1 
1 
1 
1 
1 
1 
1 
1 
1 
1 
1 
1 
1 
1 
1 
1 
1 
1 
1 
1 
1 
1 
1 
1 
1 
1 
1 
1 
1 
1 
1 
1 
1 
1 
1 
1 
1 
1 
1 
1 
1 
1 
1 
1 
1 
1 
1 
1 
1 
1 
1 
1 
1 
1 
1 
1 
1 
1 
1 
1 
1 
1 
1 
1 
1 
1 
1 
1 
1 
1 
1 
1 
1 
1 
1 
1 
1 
1 
1 
1 
1 
1 
1 
1 
1 
1 
1 
1 
1 
1 
1 
1 
1 
1 
1 
1 
1 
1 
1 
1 
1 
1 
1 
1 
1 
1 
1 
1 
1 
1 
1 
1 
1 
1 
1 
1 
1 
1 
1 
1 
1 
1 
1 
1 
1 
1 
1 
1 
1 
1 
1 
1 
1 
1 
1 
1 
1 
1 
1 
1 
1 
1 
1 
1 
1 
1 
1 
1 
1 
1 
1 
1 
1 
1 
1 
1 
1 
1 
1 
1 
1 
1 
1 
1 
1 
1 
1 
1 
1 
1 
1 
1 
1 
1 
1 
1 
1 
1 
1 
1 
1 
1 
1 
1 
1 
1 
1 
1 
1 
1 
1 
1 
1 
1 
1 
1 
1 
1 
1 
1 
1 
1 
1 
1 
1 
1 
1 
1 
1 
1 
1 
1 
1 
1 
1 
1 
1 
1 
1 
1 
1 
1 
1 
1 
1 
1 
1 
1 
1 
1 
1 
1 
1 
1 
1 
1 
1 
1 
1 
1 
1 
1 
1 
1 
1 
1 
VECTORS pos double
-0.407193 -0.411058 -0.425697 
-0.448021 -0.227916 -0.405487 
-0.387124 -0.0257193 -0.423834 
-0.410583 0.0919192 -0.427124 
-0.418042 0.378207 -0.423246 
-0.449598 0.366552 -0.402981 
-0.445237 0.312898 -0.416486 
-0.314112 -0.20753 -0.400539 
-0.269701 -0.186181 -0.42872 
-0.162399 -0.0323729 -0.420209 
-0.209593 -0.0078109 -0.402188 
-0.300947 0.361926 -0.428011 
-0.222382 0.338359 -0.444437 
-0.0791077 -0.381841 -0.435185 
-0.137416 -0.0948637 -0.420198 
-0.00611598 -0.0852486 -0.445642 
-0.0355885 -0.0517616 -0.421171 
0.0458073 0.227973 -0.461618 
0.0729617 0.155862 -0.423982 
-0.0707849 0.307957 -0.426457 
0.216816 -0.413522 -0.424035 
0.165938 -0.209669 -0.426491 
0.191153 0.0178386 -0.42463 
0.143145 0.251804 -0.445828 
0.294178 0.388938 -0.367087 
0.3334 0.417849 -0.450099 
0.316266 0.355993 -0.413344 
0.253539 0.394112 -0.404147 
0.4225 -0.428879 -0.414058 
0.433795 -0.32963 -0.407735 
0.351736 0.077399 -0.411453 
0.40629 0.456138 -0.423784 
-0.418466 -0.425962 -0.355018 
-0.437815 -0.274741 -0.318876 
-0.347981 -0.0206417 -0.381475 