# vtk DataFile Version 2.0
Generated by NetDEM
ASCII 
DATASET POLYDATA
POINTS 50 double
-0.413048 -0.00496752 -0.462573 
-0.455603 0.010653 -0.500002 
-0.0210108 -0.412832 -0.448044 
-0.00224566 -0.431056 -0.500002 
-0.212961 0.386463 -0.449404 
-0.21707 0.409184 -0.500002 
-0.209165 -0.419119 -0.441023 
-0.203183 -0.40616 -0.500002 
0.403395 0.395124 -0.443042 
0.401826 0.402901 -0.500003 
-0.0176734 0.393333 -0.449835 
0.00463841 0.393916 -0.500002 
0.39661 -0.20339 -0.450007 
0.39661 -0.20339 -0.5 
-0.423189 -0.40398 -0.463679 
-0.46775 -0.3917 -0.500002 
0.396508 0.196508 -0.450007 
0.396508 0.196508 -0.5 
0.17608 -0.213153 -0.461724 
0.148193 -0.247981 -0.500001 
-0.180272 0.197462 -0.45619 
-0.203345 0.203074 -0.500001 
0.177375 -0.00625709 -0.457938 
0.214371 0.00104479 -0.500001 
0.00854991 0.193488 -0.445117 
-0.0016652 0.207301 -0.500003 
0.185482 -0.402921 -0.461513 
0.143671 -0.387878 -0.500002 
0.396488 -0.00351175 -0.450007 
0.396488 -0.00351175 -0.5 
-0.403333 -0.203333 -0.450007 
-0.403333 -0.203333 -0.5 
-0.40295 0.19705 -0.450007 
-0.40295 0.19705 -0.5 
-0.402763 0.397237 -0.450007 
-0.402763 0.397237 -0.5 
-0.203538 -0.203538 -0.450007 
-0.203538 -0.203538 -0.5 
-0.203218 -0.00321788 -0.450007 
-0.203218 -0.00321788 -0.5 
-0.00366947 -0.203669 -0.450007 
-0.00366947 -0.203669 -0.5 
-0.00360232 -0.00360232 -0.450007 
-0.00360232 -0.00360232 -0.5 
0.196913 0.396913 -0.450007 
0.196913 0.396913 -0.5 
0.396713 -0.403287 -0.450007 
0.396713 -0.403287 -0.5 
0.186047 0.206379 -0.447149 
0.214205 0.216175 -0.500002 
LINES 25 75
2 0 1
2 2 3
2 4 5
2 6 7
2 8 9
2 10 11
2 12 13
2 14 15
2 16 17
2 18 19
2 20 21
2 22 23
2 24 25
2 26 27
2 28 29
2 30 31
2 32 33
2 34 35
2 36 37
2 38 39
2 40 41
2 42 43
2 44 45
2 46 47
2 48 49
POINT_DATA 50
SCALARS id int 1
LOOKUP_TABLE default
2
4
10
4
9
4
5
4
24
4
14
4
21
4
0
4
23
4
16
4
8
4
17
4
13
4
15
4
22
4
1
4
3
4
4
4
6
4
7
4
11
4
12
4
19
4
20
4
18
4
CELL_DATA 25
VECTORS force double
4.59264 -1.72146 7.31853 
-1.47009 1.6316 6.24699 
0.509935 -2.6286 9.39528 
-0.610436 -1.37173 9.62377 
0.262712 -1.35364 12.6567 
-2.4621 0.100166 8.95308 
0 0 13.6117 
4.89434 -1.39011 7.37596 
0 0 13.6117 
2.18765 2.69217 5.25985 
0.00515855 -0.230363 3.61706 
0.0333537 0.0773464 3.47769 
1.34335 -2.04879 10.7399 
5.81898 -1.82021 6.71292 
0 0 13.6117 
0 0 13.6117 
0 0 13.6117 
0 0 13.6117 
0 0 13.6117 
0 0 13.6117 
0 0 13.6117 
0 0 13.6117 
0 0 13.6117 
0 0 13.6117 
-2.86721 -1.09643 8.49242 
VECTORS moment double
0 0 0 
0 0 0 
0 0 0 
0 0 0 
0 0 0 
0 0 0 
0 0 0 
0 0 0 
0 0 0 
0 0 0 
0 0 0 
0 0 0 
0 0 0 
0 0 0 
0 0 0 
0 0 0 
0 0 0 
0 0 0 
0 0 0 
0 0 0 
0 0 0 
0 0 0 
0 0 0 
0 0 0 
0 0 0 
SCALARS num_collisions int 1
LOOKUP_TABLE default
1 
1 
1 
1 
1 
1 
1 
1 
1 
1 
1 
1 
1 
1 
1 
1 
1 
1 
1 
1 
1 
1 
1 
1 
1 
VECTORS pos double
-0.455603 0.010653 -0.500002 
-0.00224566 -0.431056 -0.500002 
-0.21707 0.409184 -0.500002 
-0.203183 -0.40616 -0.500002 
0.401826 0.402901 -0.500003 
0.00463841 0.393916 -0.500002 
0.39661 -0.20339 -0.5 
-0.46775 -0.3917 -0.500002 
0.396508 0.196508 -0.5 
0.148193 -0.247981 -0.500001 
-0.203345 0.203074 -0.500001 
0.214371 0.00104479 -0.500001 
-0.0016652 0.207301 -0.500003 
0.143671 -0.387878 -0.500002 
0.396488 -0.00351175 -0.5 
-0.403333 -0.203333 -0.5 
-0.40295 0.19705 -0.5 
-0.402763 0.397237 -0.5 
-0.203538 -0.203538 -0.5 
-0.203218 -0.00321788 -0.5 
-0.00366947 -0.203669 -0.5 
-0.00360232 -0.00360232 -0.5 
0.196913 0.396913 -0.5 
0.396713 -0.403287 -0.5 
0.214205 0.216175 -0.500002 
VECTORS dir_n double
2.31741e-16 3.44504e-18 1 
1.45503e-16 -3.70058e-17 1 
6.46655e-17 -9.48428e-18 1 
6.33277e-17 4.93282e-17 1 
-2.42651e-17 7.68364e-17 1 
1.66902e-16 -5.75281e-17 1 
7.3466e-17 0 1 
1.28553e-16 -8.13493e-17 1 
7.3466e-17 0 1 
1.46668e-16 3.8566e-17 1 
2.15668e-16 -1.49111e-16 1 
3.87672e-16 1.67668e-17 1 
6.94109e-17 -6.19036e-17 1 
1.43515e-17 -9.98405e-17 1 
7.3466e-17 0 1 
7.3466e-17 0 1 
7.3466e-17 0 1 
7.3466e-17 0 1 
7.3466e-17 0 1 
7.3466e-17 0 1 
7.3466e-17 0 1 
7.3466e-17 0 1 
7.3466e-17 0 1 
7.3466e-17 0 1 
5.07879e-17 1.21368e-16 1 
VECTORS dir_s double
0.936381 -0.350984 -8.78424e-17 
-0.66938 0.74292 1.77367e-17 
0.190444 -0.981698 -1.35567e-18 
-0.406572 -0.913619 2.85678e-17 
0.190523 -0.981683 9.51051e-17 
-0.999173 0.0406497 5.75017e-17 
1 0 0 
0.961952 -0.273218 -1.54705e-17 
1 0 0 
0.630638 0.776077 -2.52765e-18 
0.0223875 -0.999749 -1.47713e-16 
0.395977 0.91826 -5.50434e-17 
0.548323 -0.836267 -3.8773e-17 
0.954397 -0.298541 9.86697e-17 
1 0 0 
1 0 0 
1 0 0 
1 0 0 
1 0 0 
1 0 0 
1 0 0 
1 0 0 
1 0 0 
1 0 0 
-0.934036 -0.357179 -1.91969e-17 
