# vtk DataFile Version 2.0
Generated by NetDEM
ASCII 
DATASET POLYDATA
POINTS 246 double
-0.416959 -0.405439 -0.462855 
-0.403954 -0.399779 -0.388493 
-0.403333 -0.203333 -0.450044 
-0.403333 -0.203333 -0.350081 
-0.412514 -0.00758851 -0.464645 
-0.417084 -0.010397 -0.391831 
-0.40295 0.19705 -0.450045 
-0.40295 0.19705 -0.350082 
-0.402763 0.397237 -0.450046 
-0.402763 0.397237 -0.350084 
-0.25674 -0.434834 -0.460383 
-0.273557 -0.399967 -0.37456 
-0.203538 -0.203538 -0.450044 
-0.203538 -0.203538 -0.350081 
-0.203218 -0.00321788 -0.450044 
-0.203218 -0.00321788 -0.350081 
-0.174489 0.19176 -0.461835 
-0.24364 0.179055 -0.403495 
-0.0243569 -0.410738 -0.451892 
-0.00789921 -0.398529 -0.366278 
-0.00366947 -0.203669 -0.450043 
-0.00366947 -0.203669 -0.35008 
-0.00360232 -0.00360232 -0.450044 
-0.00360232 -0.00360232 -0.35008 
0.0305902 0.159131 -0.450955 
0.00122961 0.193596 -0.377471 
0.189148 -0.398738 -0.464557 
0.187809 -0.398369 -0.39223 
0.174423 -0.212646 -0.465031 
0.194508 -0.209803 -0.392034 
0.172815 -0.00992523 -0.462514 
0.18532 -0.0158863 -0.38426 
0.157933 0.216228 -0.463398 
0.178439 0.180609 -0.37888 
0.196913 0.396913 -0.450047 
0.196913 0.396913 -0.350086 
0.396713 -0.403287 -0.450044 
0.396713 -0.403287 -0.350081 
0.39661 -0.20339 -0.450048 
0.39661 -0.20339 -0.350089 
0.396488 -0.00351175 -0.450044 
0.396488 -0.00351175 -0.350082 
0.396508 0.196508 -0.45005 
0.396508 0.196508 -0.350093 
-0.403954 -0.399779 -0.388493 
-0.404157 -0.404222 -0.316223 
-0.403333 -0.203333 -0.350081 
-0.403333 -0.203333 -0.250111 
-0.417084 -0.010397 -0.391831 
-0.40402 -0.00399043 -0.311152 
-0.40295 0.19705 -0.350082 
-0.40295 0.19705 -0.250113 
-0.402763 0.397237 -0.350084 
-0.402763 0.397237 -0.250115 
-0.203538 -0.203538 -0.350081 
-0.203538 -0.203538 -0.250111 
-0.203218 -0.00321788 -0.350081 
-0.203218 -0.00321788 -0.250112 
-0.24364 0.179055 -0.403495 
-0.210251 0.199113 -0.317382 
-0.00789921 -0.398529 -0.366278 
0.00307756 -0.407923 -0.275138 
-0.00366947 -0.203669 -0.35008 
-0.00366947 -0.203669 -0.250109 
-0.00360232 -0.00360232 -0.35008 
-0.00360232 -0.00360232 -0.25011 
0.187809 -0.398369 -0.39223 
0.175795 -0.397899 -0.318465 
0.194508 -0.209803 -0.392034 
0.187679 -0.197655 -0.303171 
0.18532 -0.0158863 -0.38426 
0.186408 -0.00378881 -0.309039 
0.196913 0.396913 -0.350086 
0.196913 0.396913 -0.250117 
0.396713 -0.403287 -0.350081 
0.396713 -0.403287 -0.250111 
0.39661 -0.20339 -0.350089 
0.39661 -0.20339 -0.250122 
0.396488 -0.00351175 -0.350082 
0.396488 -0.00351175 -0.250112 
0.396508 0.196508 -0.350093 
0.396508 0.196508 -0.250127 
-0.404157 -0.404222 -0.316223 
-0.410854 -0.403844 -0.237745 
-0.403333 -0.203333 -0.250111 
-0.403333 -0.203333 -0.150135 
-0.40402 -0.00399043 -0.311152 
-0.405907 0.003311 -0.233981 
-0.40295 0.19705 -0.250113 
-0.40295 0.19705 -0.150136 
-0.402763 0.397237 -0.250115 
-0.402763 0.397237 -0.150139 
-0.203538 -0.203538 -0.250111 
-0.203538 -0.203538 -0.150134 
-0.203218 -0.00321788 -0.250112 
-0.203218 -0.00321788 -0.150135 
-0.210251 0.199113 -0.317382 
-0.190689 0.193436 -0.225001 
-0.195614 0.413489 -0.346537 
-0.206867 0.395896 -0.259289 
0.00307756 -0.407923 -0.275138 
0.000978515 -0.39988 -0.185205 
-0.00366947 -0.203669 -0.250109 
-0.00366947 -0.203669 -0.150131 
-0.00360232 -0.00360232 -0.25011 
-0.00360232 -0.00360232 -0.150133 
0.0231676 0.385843 -0.29598 
0.0036378 0.40325 -0.214976 
0.175795 -0.397899 -0.318465 
0.205355 -0.398198 -0.229069 
0.187679 -0.197655 -0.303171 
0.193945 -0.200211 -0.213892 
0.186408 -0.00378881 -0.309039 
0.194134 -0.00221504 -0.230969 
0.196913 0.396913 -0.250117 
0.196913 0.396913 -0.150142 
0.396713 -0.403287 -0.250111 
0.396713 -0.403287 -0.150134 
0.39661 -0.20339 -0.250122 
0.39661 -0.20339 -0.150146 
0.396488 -0.00351175 -0.250112 
0.396488 -0.00351175 -0.150135 
0.396508 0.196508 -0.250127 
0.396508 0.196508 -0.150153 
-0.410854 -0.403844 -0.237745 
-0.408756 -0.404266 -0.15908 
-0.403333 -0.203333 -0.150135 
-0.403333 -0.203333 -0.0501502 
-0.405907 0.003311 -0.233981 
-0.404763 -0.0052208 -0.14962 
-0.40295 0.19705 -0.150136 
-0.40295 0.19705 -0.0501519 
-0.402763 0.397237 -0.150139 
-0.402763 0.397237 -0.0501554 
-0.203538 -0.203538 -0.150134 
-0.203538 -0.203538 -0.0501491 
-0.203218 -0.00321788 -0.150135 
-0.203218 -0.00321788 -0.0501504 
-0.190689 0.193436 -0.225001 
-0.205483 0.193844 -0.131026 
0.000978515 -0.39988 -0.185205 
-0.0075461 -0.40263 -0.10265 
-0.00366947 -0.203669 -0.150131 
-0.00366947 -0.203669 -0.0501463 
-0.00360232 -0.00360232 -0.150133 
-0.00360232 -0.00360232 -0.0501484 
0.205355 -0.398198 -0.229069 
0.194049 -0.40596 -0.152363 
0.193945 -0.200211 -0.213892 
0.193832 -0.210138 -0.125529 
0.194134 -0.00221504 -0.230969 
0.186961 -0.00301747 -0.159441 
0.196913 0.396913 -0.150142 
0.196913 0.396913 -0.050158 
0.396713 -0.403287 -0.150134 
0.396713 -0.403287 -0.0501502 
0.39661 -0.20339 -0.150146 
0.39661 -0.20339 -0.0501625 
0.396488 -0.00351175 -0.150135 
0.396488 -0.00351175 -0.0501506 
0.396508 0.196508 -0.150153 
0.396508 0.196508 -0.0501694 
-0.408756 -0.404266 -0.15908 
-0.403646 -0.403529 -0.0666631 
-0.403333 -0.203333 -0.0501502 
-0.403333 -0.203333 0.0498419 
-0.40295 0.19705 -0.0501519 
-0.40295 0.19705 0.04984 
-0.402763 0.397237 -0.0501554 
-0.402763 0.397237 0.0498364 
-0.203538 -0.203538 -0.0501491 
-0.203538 -0.203538 0.049843 
-0.203218 -0.00321788 -0.0501504 
-0.203218 -0.00321788 0.0498416 
-0.201898 0.394519 -0.157027 
-0.203512 0.396366 -0.0588479 
-0.0075461 -0.40263 -0.10265 
-0.00494684 -0.402838 -0.0122057 
-0.00366947 -0.203669 -0.0501463 
-0.00366947 -0.203669 0.049846 
-0.00360232 -0.00360232 -0.0501484 
-0.00360232 -0.00360232 0.0498438 
0.193832 -0.210138 -0.125529 
0.196342 -0.203361 -0.0314961 
0.196913 0.396913 -0.050158 
0.196913 0.396913 0.0498338 
0.396713 -0.403287 -0.0501502 
0.396713 -0.403287 0.0498419 
0.39661 -0.20339 -0.0501625 
0.39661 -0.20339 0.0498295 
0.396488 -0.00351175 -0.0501506 
0.396488 -0.00351175 0.0498414 
0.396508 0.196508 -0.0501694 
0.396508 0.196508 0.0498228 
-0.25674 -0.434834 -0.460383 
-0.29417 -0.500002 -0.471906 
0.172815 -0.00992523 -0.462514 
0.209783 -0.0115108 -0.500024 
-0.412514 -0.00758851 -0.464645 
-0.406875 -0.00385459 -0.500052 
-0.0380375 0.394319 -0.464773 
-0.0407753 0.401677 -0.500003 
0.0305902 0.159131 -0.450955 
0.0381183 0.166135 -0.500013 
-0.174489 0.19176 -0.461835 
-0.188142 0.197813 -0.500012 
0.39661 -0.20339 -0.450048 
0.39661 -0.20339 -0.5 
-0.416959 -0.405439 -0.462855 
-0.392121 -0.405181 -0.500032 
0.396508 0.196508 -0.45005 
0.396508 0.196508 -0.5 
0.189148 -0.398738 -0.464557 
0.206072 -0.401137 -0.500084 
0.157933 0.216228 -0.463398 
0.155263 0.228873 -0.500008 
0.174423 -0.212646 -0.465031 
0.214135 -0.198155 -0.500038 
-0.243365 0.369593 -0.463642 
-0.227056 0.368906 -0.499999 
-0.0243569 -0.410738 -0.451892 
0.00592685 -0.419241 -0.500022 
0.396488 -0.00351175 -0.450044 
0.396488 -0.00351175 -0.5 
-0.403333 -0.203333 -0.450044 
-0.403333 -0.203333 -0.5 
-0.40295 0.19705 -0.450045 
-0.40295 0.19705 -0.5 
-0.402763 0.397237 -0.450046 
-0.402763 0.397237 -0.5 
-0.203538 -0.203538 -0.450044 
-0.203538 -0.203538 -0.5 
-0.203218 -0.00321788 -0.450044 
-0.203218 -0.00321788 -0.5 
-0.00366947 -0.203669 -0.450043 
-0.00366947 -0.203669 -0.5 
-0.00360232 -0.00360232 -0.450044 
-0.00360232 -0.00360232 -0.5 
0.196913 0.396913 -0.450047 
0.196913 0.396913 -0.5 
0.396713 -0.403287 -0.450044 
0.396713 -0.403287 -0.5 
-0.25674 -0.434834 -0.460383 
-0.26058 -0.418871 -0.500005 
0.380456 0.432747 -0.454858 
0.390635 0.397501 -0.500001 
LINES 123 369
2 0 1
2 2 3
2 4 5
2 6 7
2 8 9
2 10 11
2 12 13
2 14 15
2 16 17
2 18 19
2 20 21
2 22 23
2 24 25
2 26 27
2 28 29
2 30 31
2 32 33
2 34 35
2 36 37
2 38 39
2 40 41
2 42 43
2 44 45
2 46 47
2 48 49
2 50 51
2 52 53
2 54 55
2 56 57
2 58 59
2 60 61
2 62 63
2 64 65
2 66 67
2 68 69
2 70 71
2 72 73
2 74 75
2 76 77
2 78 79
2 80 81
2 82 83
2 84 85
2 86 87
2 88 89
2 90 91
2 92 93
2 94 95
2 96 97
2 98 99
2 100 101
2 102 103
2 104 105
2 106 107
2 108 109
2 110 111
2 112 113
2 114 115
2 116 117
2 118 119
2 120 121
2 122 123
2 124 125
2 126 127
2 128 129
2 130 131
2 132 133
2 134 135
2 136 137
2 138 139
2 140 141
2 142 143
2 144 145
2 146 147
2 148 149
2 150 151
2 152 153
2 154 155
2 156 157
2 158 159
2 160 161
2 162 163
2 164 165
2 166 167
2 168 169
2 170 171
2 172 173
2 174 175
2 176 177
2 178 179
2 180 181
2 182 183
2 184 185
2 186 187
2 188 189
2 190 191
2 192 193
2 194 195
2 196 197
2 198 199
2 200 201
2 202 203
2 204 205
2 206 207
2 208 209
2 210 211
2 212 213
2 214 215
2 216 217
2 218 219
2 220 221
2 222 223
2 224 225
2 226 227
2 228 229
2 230 231
2 232 233
2 234 235
2 236 237
2 238 239
2 240 241
2 242 243
2 244 245
POINT_DATA 246
SCALARS id int 1
LOOKUP_TABLE default
0
25
1
26
2
27
3
28
4
29
5
30
6
31
7
32
8
33
10
35
11
36
12
37
13
38
15
40
16
41
17
42
18
43
19
44
20
45
21
46
22
47
23
48
25
50
26
51
27
52
28
53
29
54
31
56
32
57
33
58
35
60
36
61
37
62
40
65
41
66
42
67
44
69
45
70
46
71
47
72
48
73
50
75
51
76
52
77
53
78
54
79
56
81
57
82
58
83
59
84
60
85
61
86
62
87
64
89
65
90
66
91
67
92
69
94
70
95
71
96
72
97
73
98
75
100
76
101
77
102
78
103
79
104
81
106
82
107
83
108
85
110
86
111
87
112
90
115
91
116
92
117
94
119
95
120
96
121
97
122
98
123
100
125
101
126
103
128
104
129
106
131
107
132
109
134
110
135
111
136
112
137
116
141
119
144
120
145
121
146
122
147
123
148
5
2
17
4
2
4
14
4
13
4
8
4
21
4
0
4
23
4
15
4
18
4
16
4
9
4
10
4
22
4
1
4
3
4
4
4
6
4
7
4
11
4
12
4
19
4
20
4
5
4
24
4
CELL_DATA 123
VECTORS force double
1.36572 -16.0236 -211.142 
0 0 -72.4495 
-3.02119 4.80835 -163.275 
0 0 -73.2061 
0 0 -74.9036 
-159.603 50.4063 -111.804 
0 0 -71.955 
0 0 -72.4839 
-2.79494 -0.29428 -4.56903 
-2.07383 -7.90478 -61.1369 
0 0 -70.7079 
0 0 -71.5726 
-0.278614 2.95033 -0.149549 
17.3021 -12.111 -295.169 
7.55576 -0.475205 -121.014 
12.8654 -5.43541 -80.5061 
-18.0199 27.8245 -63.1708 
0 0 -76.5558 
0 0 -72.4195 
0 0 -79.7779 
0 0 -72.5848 
0 0 -85.2383 
-5.79133 0.837854 -190.568 
0 0 -58.7945 
0.974875 7.27104 -99.5713 
0 0 -59.6221 
0 0 -61.1485 
0 0 -58.3902 
0 0 -58.8617 
-10.8985 -0.718047 -33.8626 
-2.56447 -6.55178 -67.6965 
0 0 -57.1038 
0 0 -57.9871 
22.3562 2.75873 -201.494 
2.04438 6.07052 -107.515 
8.77939 -3.61704 -55.6189 
0 0 -62.4801 
0 0 -58.8542 
0 0 -64.5608 
0 0 -59.0054 
0 0 -67.9996 
-0.294497 12.7156 -155.873 
0 0 -44.8375 
6.6372 0.766834 -21.408 
0 0 -45.6792 
0 0 -46.9554 
0 0 -44.5946 
0 0 -44.9279 
-8.93986 -0.721741 -56.688 
-1.36288 -0.730342 6.24021 
-9.13356 4.71824 -71.2635 
0 0 -43.3176 
0 0 -44.1694 
13.3651 -18.1532 -57.9103 
15.4063 9.05318 -106.551 
-9.13124 -0.109364 -112.124 
6.24601 3.72576 -24.3682 
0 0 -47.9318 
0 0 -45.0085 
0 0 -48.845 
0 0 -45.1145 
0 0 -50.1194 
38.8108 25.4429 -222.531 
0 0 -30.374 
1.92376 -2.73403 2.05934 
0 0 -31.0787 
0 0 -32.0087 
0 0 -30.2487 
0 0 -30.4607 
5.53946 0.763523 -41.1994 
-0.930071 -11.4866 -92.2992 
0 0 -29.1973 
0 0 -29.8872 
-2.70593 -4.86056 -24.3601 
-9.05333 1.00801 -92.7774 
6.55062 6.72073 -6.49382 
0 0 -32.6349 
0 0 -30.5678 
0 0 -32.8099 
0 0 -30.6359 
0 0 -31.8035 
6.76347 4.40881 -18.1852 
0 0 -15.3651 
0 0 -15.7694 
0 0 -16.2609 
0 0 -15.3156 
0 0 -15.4178 
-12.7028 -42.5809 -21.0941 
17.9773 -0.569615 -59.0957 
0 0 -14.7168 
0 0 -15.1065 
12.1508 11.9477 -38.3483 
0 0 -16.5614 
0 0 -15.491 
0 0 -16.5046 
0 0 -15.5241 
0 0 -14.4274 
-13.422 27.041 42.2743 
-9.07211 3.86393 100.703 
5.61014 1.39368 194.694 
0.642152 -1.4543 13.0822 
-3.84527 -2.44604 30.3512 
3.5557 -0.443184 13.1118 
0 0 94.2686 
4.5534 22.1202 202.395 
0 0 101.041 
-25.2953 0.744749 315.256 
7.86733 -32.3997 71.1018 
-9.31074 4.6639 129.4 
-3.04054 -0.482872 12.2341 
-12.3525 5.73718 69.6711 
0 0 86.1589 
0 0 86.0496 
0 0 86.7809 
0 0 88.5663 
0 0 85.5191 
0 0 86.0753 
0 0 84.3032 
0 0 85.1528 
0 0 90.4271 
0 0 85.9838 
4.43675 15.4222 125.301 
0.0342411 1.27444 4.18055 
VECTORS moment double
0 0 0 
0 0 0 
0 0 0 
0 0 0 
0 0 0 
0 0 0 
0 0 0 
0 0 0 
0 0 0 
0 0 0 
0 0 0 
0 0 0 
0 0 0 
0 0 0 
0 0 0 
0 0 0 
0 0 0 
0 0 0 
0 0 0 
0 0 0 
0 0 0 
0 0 0 
0 0 0 
0 0 0 
0 0 0 
0 0 0 
0 0 0 
0 0 0 
0 0 0 
0 0 0 
0 0 0 
0 0 0 
0 0 0 
0 0 0 
0 0 0 
0 0 0 
0 0 0 
0 0 0 
0 0 0 
0 0 0 
0 0 0 
0 0 0 
0 0 0 
0 0 0 
0 0 0 
0 0 0 
0 0 0 
0 0 0 
0 0 0 
0 0 0 
0 0 0 
0 0 0 
0 0 0 
0 0 0 
0 0 0 
0 0 0 
0 0 0 
0 0 0 
0 0 0 
0 0 0 
0 0 0 
0 0 0 
0 0 0 
0 0 0 
0 0 0 
0 0 0 
0 0 0 
0 0 0 
0 0 0 
0 0 0 
0 0 0 
0 0 0 
0 0 0 
0 0 0 
0 0 0 
0 0 0 
0 0 0 
0 0 0 
0 0 0 
0 0 0 
0 0 0 
0 0 0 
0 0 0 
0 0 0 
0 0 0 
0 0 0 
0 0 0 
0 0 0 
0 0 0 
0 0 0 
0 0 0 
0 0 0 
0 0 0 
0 0 0 
0 0 0 
0 0 0 
0 0 0 
0 0 0 
0 0 0 
0 0 0 
0 0 0 
0 0 0 
0 0 0 
0 0 0 
0 0 0 
0 0 0 
0 0 0 
0 0 0 
0 0 0 
0 0 0 
0 0 0 
0 0 0 
0 0 0 
0 0 0 
0 0 0 
0 0 0 
0 0 0 
0 0 0 
0 0 0 
0 0 0 
0 0 0 
0 0 0 
0 0 0 
SCALARS num_collisions int 1
LOOKUP_TABLE default
1 
1 
1 
1 
1 
1 
1 
1 
1 
1 
1 
1 
1 
1 
1 
1 
1 
1 
1 
1 
1 
1 
1 
1 
1 
1 
1 
1 
1 
1 
1 
1 
1 
1 
1 
1 
1 
1 
1 
1 
1 
1 
1 
1 
1 
1 
1 
1 
1 
1 
1 
1 
1 
1 
1 
1 
1 
1 
1 
1 
1 
1 
1 
1 
1 
1 
1 
1 
1 
1 
1 
1 
1 
1 
1 
1 
1 
1 
1 
1 
1 
1 
1 
1 
1 
1 
1 
1 
1 
1 
1 
1 
1 
1 
1 
1 
1 
1 
1 
1 
1 
1 
1 
1 
1 
1 
1 
1 
1 
1 
1 
1 
1 
1 
1 
1 
1 
1 
1 
1 
1 
1 
1 
VECTORS pos double
-0.393759 -0.394712 -0.423962 
-0.403333 -0.203333 -0.400063 
-0.403101 -0.00434676 -0.425408 
-0.40295 0.19705 -0.400064 
-0.402763 0.397237 -0.400065 
-0.256612 -0.395076 -0.426706 
-0.203538 -0.203538 -0.400063 
-0.203218 -0.00321788 -0.400063 
-0.223481 0.207089 -0.441949 
-0.00151221 -0.414747 -0.421763 
-0.00366947 -0.203669 -0.400062 
-0.00360232 -0.00360232 -0.400062 
0.0314566 0.174768 -0.412347 
0.197043 -0.399765 -0.425892 
0.195684 -0.190008 -0.425621 
0.209203 -0.00986234 -0.425324 
0.171429 0.194806 -0.425124 
0.196913 0.396913 -0.400066 
0.396713 -0.403287 -0.400063 
0.39661 -0.20339 -0.400069 
0.396488 -0.00351175 -0.400063 
0.396508 0.196508 -0.400071 
-0.398329 -0.393196 -0.349694 
-0.403333 -0.203333 -0.300097 
-0.399289 -0.000606687 -0.346551 
-0.40295 0.19705 -0.300098 
-0.402763 0.397237 -0.3001 
-0.203538 -0.203538 -0.300096 
-0.203218 -0.00321788 -0.300097 
-0.225887 0.182972 -0.351805 
0.00310644 -0.397299 -0.328724 
-0.00366947 -0.203669 -0.300094 
-0.00360232 -0.00360232 -0.300096 
0.199403 -0.403528 -0.34696 
0.193885 -0.192809 -0.344399 
0.205367 0.00144386 -0.348291 
0.196913 0.396913 -0.300102 
0.396713 -0.403287 -0.300097 
0.39661 -0.20339 -0.300106 
0.396488 -0.00351175 -0.300097 
0.396508 0.196508 -0.30011 
-0.38758 -0.396801 -0.268809 
-0.403333 -0.203333 -0.200123 
-0.39285 -0.00923982 -0.265753 
-0.40295 0.19705 -0.200125 
-0.402763 0.397237 -0.200128 
-0.203538 -0.203538 -0.200123 
-0.203218 -0.00321788 -0.200124 
-0.191928 0.194051 -0.285895 
-0.200173 0.411531 -0.293777 
0.00800323 -0.39707 -0.227311 
-0.00366947 -0.203669 -0.20012 
-0.00360232 -0.00360232 -0.200122 
0.0182036 0.399832 -0.253297 
0.204043 -0.402986 -0.266952 
0.190527 -0.197046 -0.252669 
0.216717 0.0103936 -0.273453 
0.196913 0.396913 -0.20013 
0.396713 -0.403287 -0.200123 
0.39661 -0.20339 -0.200134 
0.396488 -0.00351175 -0.200124 
0.396508 0.196508 -0.20014 
-0.39846 -0.404135 -0.192879 
-0.403333 -0.203333 -0.100143 
-0.399926 -0.0166011 -0.188292 
-0.40295 0.19705 -0.100144 
-0.402763 0.397237 -0.100148 
-0.203538 -0.203538 -0.100142 
-0.203218 -0.00321788 -0.100143 
-0.200852 0.194576 -0.170635 
0.0143102 -0.401706 -0.15059 
-0.00366947 -0.203669 -0.100139 
-0.00360232 -0.00360232 -0.100141 
0.193943 -0.417775 -0.194917 
0.203639 -0.194711 -0.162649 
0.190706 -0.0200884 -0.195746 
0.196913 0.396913 -0.10015 
0.396713 -0.403287 -0.100143 
0.39661 -0.20339 -0.100155 
0.396488 -0.00351175 -0.100143 
0.396508 0.196508 -0.100161 
-0.37919 -0.393307 -0.108606 
-0.403333 -0.203333 -0.00015465 
-0.40295 0.19705 -0.000156412 
-0.402763 0.397237 -0.000159971 
-0.203538 -0.203538 -0.00015358 
-0.203218 -0.00321788 -0.000154913 
-0.216844 0.406456 -0.11016 
0.0103922 -0.388109 -0.0603123 
-0.00366947 -0.203669 -0.000150669 
-0.00360232 -0.00360232 -0.000152822 
0.198056 -0.196851 -0.0676689 
0.196913 0.396913 -0.000162422 
0.396713 -0.403287 -0.000154628 
0.39661 -0.20339 -0.000166783 
0.396488 -0.00351175 -0.000155089 
0.396508 0.196508 -0.00017354 
-0.29417 -0.500002 -0.471906 
0.209783 -0.0115108 -0.500024 
-0.406875 -0.00385459 -0.500052 
-0.0407753 0.401677 -0.500003 
0.0381183 0.166135 -0.500013 
-0.188142 0.197813 -0.500012 
0.39661 -0.20339 -0.5 
-0.392121 -0.405181 -0.500032 
0.396508 0.196508 -0.5 
0.206072 -0.401137 -0.500084 
0.155263 0.228873 -0.500008 
0.214135 -0.198155 -0.500038 
-0.227056 0.368906 -0.499999 
0.00592685 -0.419241 -0.500022 
0.396488 -0.00351175 -0.5 
-0.403333 -0.203333 -0.5 
-0.40295 0.19705 -0.5 
-0.402763 0.397237 -0.5 
-0.203538 -0.203538 -0.5 
-0.203218 -0.00321788 -0.5 
-0.00366947 -0.203669 -0.5 
-0.00360232 -0.00360232 -0.5 
0.196913 0.396913 -0.5 
0.396713 -0.403287 -0.5 
-0.26058 -0.418871 -0.500005 
0.390635 0.397501 -0.500001 
VECTORS dir_n double
-0.0424653 -0.00161425 -0.999097 
1.38027e-17 0 -1 
0.219817 -0.0159742 -0.97541 
1.36601e-17 0 -1 
1.33505e-17 0 -1 
0.372458 -0.321934 -0.870422 
1.38976e-17 0 -1 
1.37962e-17 0 -1 
0.654876 0.401145 -0.640484 
-0.328345 0.103663 -0.938852 
1.41427e-17 0 -1 
1.39718e-17 0 -1 
-0.173414 0.291378 0.940758 
0.218763 -0.0199659 -0.975574 
-0.256281 0.169489 -0.951627 
-0.146484 0.0137543 -0.989117 
0.117767 0.116419 -0.986194 
1.30624e-17 0 -1 
1.38084e-17 0 -1 
1.25348e-17 0 -1 
1.3777e-17 0 -1 
1.17318e-17 0 -1 
0.175546 0.102145 -0.979158 
1.70084e-17 0 -1 
0.189648 -0.079655 -0.978616 
1.67723e-17 0 -1 
1.63536e-17 0 -1 
1.71262e-17 0 -1 
1.6989e-17 0 -1 
-0.525102 0.0293056 -0.850535 
-0.496301 0.234522 -0.835874 
1.7512e-17 0 -1 
1.72452e-17 0 -1 
0.398866 0.0804374 -0.913474 
-0.229372 0.240343 -0.943199 
-0.0960277 -0.0109424 -0.995319 
1.60051e-17 0 -1 
1.69911e-17 0 -1 
1.54893e-17 0 -1 
1.69476e-17 0 -1 
1.4706e-17 0 -1 
0.197872 0.157625 -0.967471 
2.23028e-17 0 -1 
0.346785 -0.053869 -0.936396 
2.18918e-17 0 -1 
2.12968e-17 0 -1 
2.24243e-17 0 -1 
2.22579e-17 0 -1 
-0.235777 0.274827 -0.932137 
-0.487723 -0.341064 0.803618 
-0.426351 0.0704196 -0.901812 
2.30853e-17 0 -1 
2.26401e-17 0 -1 
-0.0354639 0.263419 -0.96403 
-0.405261 0.0272018 -0.913796 
-0.279622 0.468519 -0.838035 
-0.15407 -0.0561482 -0.986463 
2.0863e-17 0 -1 
2.2218e-17 0 -1 
2.04729e-17 0 -1 
2.21658e-17 0 -1 
1.99524e-17 0 -1 
0.240292 0.150962 -0.95889 
3.29229e-17 0 -1 
-0.278774 -0.222093 0.934323 
3.21764e-17 0 -1 
3.12415e-17 0 -1 
3.30592e-17 0 -1 
3.28292e-17 0 -1 
0.515158 0.00432931 -0.857084 
-0.283627 0.280364 -0.917034 
3.42497e-17 0 -1 
3.34591e-17 0 -1 
0.149181 0.136822 -0.979298 
-0.271427 0.534529 -0.800379 
0.0854589 0.0586717 -0.994613 
3.06421e-17 0 -1 
3.27142e-17 0 -1 
3.04786e-17 0 -1 
3.26414e-17 0 -1 
3.14431e-17 0 -1 
-0.190603 0.0690439 -0.979236 
6.50827e-17 0 -1 
6.34139e-17 0 -1 
6.14973e-17 0 -1 
6.5293e-17 0 -1 
6.48601e-17 0 -1 
-0.135109 -0.0930079 -0.986456 
-0.190057 0.204521 -0.960234 
6.79494e-17 0 -1 
6.61965e-17 0 -1 
-0.263643 0.121929 -0.956883 
6.03815e-17 0 -1 
6.45536e-17 0 -1 
6.05891e-17 0 -1 
6.44159e-17 0 -1 
6.93126e-17 0 -1 
1.31356e-16 1 1.32182e-16 
2.10984e-16 1.36511e-17 1 
-3.38232e-17 -4.02307e-17 1 
-1.89916e-17 3.7265e-17 1 
2.88615e-17 -1.74621e-16 1 
-1.56729e-18 -3.96357e-17 1 
1.0608e-17 0 1 
-7.85011e-17 -2.41121e-16 1 
9.89699e-18 0 1 
1.00241e-16 -1.38703e-16 1 
-1.672e-16 2.66124e-17 1 
2.93978e-18 8.63361e-17 1 
2.03423e-16 8.89707e-17 1 
1.38003e-17 2.17047e-17 1 
1.16065e-17 0 1 
1.16212e-17 0 1 
1.15233e-17 0 1 
1.1291e-17 0 1 
1.16933e-17 0 1 
1.16177e-17 0 1 
1.18619e-17 0 1 
1.17436e-17 0 1 
1.10586e-17 0 1 
1.16301e-17 0 1 
8.52556e-17 -3.50374e-17 1 
2.39806e-16 7.74963e-18 1 
VECTORS dir_s double
0.549656 -0.835101 -0.0220131 
1 0 0 
-0.957911 0.185695 -0.218915 
1 0 0 
1 0 0 
-0.837845 0.286708 -0.464559 
1 0 0 
1 0 0 
-0.651354 -0.130179 -0.747523 
0.729481 -0.603592 -0.321767 
1 0 0 
1 0 0 
-0.0507818 0.951315 -0.304008 
-0.967985 -0.130549 -0.214389 
0.838496 -0.450805 -0.306104 
0.955628 -0.256369 -0.145089 
-0.779958 0.625534 -0.0192956 
1 0 0 
1 0 0 
1 0 0 
1 0 0 
1 0 0 
-0.885526 -0.418191 -0.202385 
1 0 0 
-0.743221 0.639663 -0.196096 
1 0 0 
1 0 0 
1 0 0 
1 0 0 
0.830802 -0.199 -0.519776 
0.664403 -0.517128 -0.539581 
1 0 0 
1 0 0 
-0.889585 -0.207852 -0.406738 
0.764565 -0.5552 -0.327405 
0.97346 -0.209722 -0.0916131 
1 0 0 
1 0 0 
1 0 0 
1 0 0 
1 0 0 
-0.909501 -0.338585 -0.24118 
1 0 0 
-0.474813 0.850894 -0.224793 
1 0 0 
1 0 0 
1 0 0 
1 0 0 
0.230555 -0.915976 -0.32838 
0.614726 0.519444 0.59354 
0.903904 -0.0047288 -0.42771 
1 0 0 
1 0 0 
0.419728 -0.871508 -0.253578 
0.909436 0.113913 -0.399937 
0.308298 -0.782814 -0.540514 
0.877958 0.450225 -0.162749 
1 0 0 
1 0 0 
1 0 0 
1 0 0 
1 0 0 
-0.83658 -0.468818 -0.28345 
1 0 0 
0.733311 -0.677435 0.0577689 
1 0 0 
1 0 0 
1 0 0 
1 0 0 
-0.856609 0.036287 -0.514689 
0.499821 -0.772907 -0.390889 
1 0 0 
1 0 0 
-0.595508 -0.778199 -0.199443 
0.228358 -0.772085 -0.593074 
0.681903 0.724391 0.101322 
1 0 0 
1 0 0 
1 0 0 
1 0 0 
1 0 0 
0.938415 0.305649 -0.161107 
1 0 0 
1 0 0 
1 0 0 
1 0 0 
1 0 0 
-0.220139 -0.967884 0.121408 
0.89539 -0.365054 -0.254976 
1 0 0 
1 0 0 
0.919721 0.330894 -0.211241 
1 0 0 
1 0 0 
1 0 0 
1 0 0 
1 0 0 
-0.302611 -9.74254e-17 0.953114 
-0.920028 0.391852 1.79626e-16 
0.970502 0.241094 4.75096e-17 
0.403929 -0.91479 7.26371e-17 
-0.843756 -0.536727 -9.71713e-17 
0.992322 -0.123683 7.23345e-17 
1 0 0 
0.201621 0.979464 2.52993e-16 
1 0 0 
-0.999567 0.0294295 1.01109e-16 
0.235964 -0.971762 6.86328e-17 
-0.894099 0.447869 -4.29484e-17 
-0.987623 -0.156846 1.34133e-16 
-0.90695 0.421238 -9.64423e-18 
1 0 0 
1 0 0 
1 0 0 
1 0 0 
1 0 0 
1 0 0 
1 0 0 
1 0 0 
1 0 0 
1 0 0 
0.276473 0.961022 1.23073e-17 
0.0268578 0.999639 -7.76303e-18 
